 Entering Gaussian System, Link 0=/data/opt/apps/g09-C01/g09
 Initial command:
 /data/opt/apps/g09-C01/l1.exe /tmp/g09-tuu61186-152863553d2e86c1cx/Gau-1528670.inp -scrdir=/tmp/g09-tuu61186-152863553d2e86c1cx/
 Entering Link 1 = /data/opt/apps/g09-C01/l1.exe PID=   1528672.
  
 Copyright (c) 1988,1990,1992,1993,1995,1998,2003,2009,2011,
            Gaussian, Inc.  All Rights Reserved.
  
 This is part of the Gaussian(R) 09 program.  It is based on
 the Gaussian(R) 03 system (copyright 2003, Gaussian, Inc.),
 the Gaussian(R) 98 system (copyright 1998, Gaussian, Inc.),
 the Gaussian(R) 94 system (copyright 1995, Gaussian, Inc.),
 the Gaussian 92(TM) system (copyright 1992, Gaussian, Inc.),
 the Gaussian 90(TM) system (copyright 1990, Gaussian, Inc.),
 the Gaussian 88(TM) system (copyright 1988, Gaussian, Inc.),
 the Gaussian 86(TM) system (copyright 1986, Carnegie Mellon
 University), and the Gaussian 82(TM) system (copyright 1983,
 Carnegie Mellon University). Gaussian is a federally registered
 trademark of Gaussian, Inc.
  
 This software contains proprietary and confidential information,
 including trade secrets, belonging to Gaussian, Inc.
  
 This software is provided under written license and may be
 used, copied, transmitted, or stored only in accord with that
 written license.
  
 The following legend is applicable only to US Government
 contracts under FAR:
  
                    RESTRICTED RIGHTS LEGEND
  
 Use, reproduction and disclosure by the US Government is
 subject to restrictions as set forth in subparagraphs (a)
 and (c) of the Commercial Computer Software - Restricted
 Rights clause in FAR 52.227-19.
  
 Gaussian, Inc.
 340 Quinnipiac St., Bldg. 40, Wallingford CT 06492
  
  
 ---------------------------------------------------------------
 Warning -- This program may not be used in any manner that
 competes with the business of Gaussian, Inc. or will provide
 assistance to any competitor of Gaussian, Inc.  The licensee
 of this program is prohibited from giving any competitor of
 Gaussian, Inc. access to this program.  By using this program,
 the user acknowledges that Gaussian, Inc. is engaged in the
 business of creating and licensing software in the field of
 computational chemistry and represents and warrants to the
 licensee that it is not a competitor of Gaussian, Inc. and that
 it will not use this program in any manner prohibited above.
 ---------------------------------------------------------------
  

 Cite this work as:
 Gaussian 09, Revision C.01,
 M. J. Frisch, G. W. Trucks, H. B. Schlegel, G. E. Scuseria, 
 M. A. Robb, J. R. Cheeseman, G. Scalmani, V. Barone, B. Mennucci, 
 G. A. Petersson, H. Nakatsuji, M. Caricato, X. Li, H. P. Hratchian, 
 A. F. Izmaylov, J. Bloino, G. Zheng, J. L. Sonnenberg, M. Hada, 
 M. Ehara, K. Toyota, R. Fukuda, J. Hasegawa, M. Ishida, T. Nakajima, 
 Y. Honda, O. Kitao, H. Nakai, T. Vreven, J. A. Montgomery, Jr., 
 J. E. Peralta, F. Ogliaro, M. Bearpark, J. J. Heyd, E. Brothers, 
 K. N. Kudin, V. N. Staroverov, T. Keith, R. Kobayashi, J. Normand, 
 K. Raghavachari, A. Rendell, J. C. Burant, S. S. Iyengar, J. Tomasi, 
 M. Cossi, N. Rega, J. M. Millam, M. Klene, J. E. Knox, J. B. Cross, 
 V. Bakken, C. Adamo, J. Jaramillo, R. Gomperts, R. E. Stratmann, 
 O. Yazyev, A. J. Austin, R. Cammi, C. Pomelli, J. W. Ochterski, 
 R. L. Martin, K. Morokuma, V. G. Zakrzewski, G. A. Voth, 
 P. Salvador, J. J. Dannenberg, S. Dapprich, A. D. Daniels, 
 O. Farkas, J. B. Foresman, J. V. Ortiz, J. Cioslowski, 
 and D. J. Fox, Gaussian, Inc., Wallingford CT, 2010.
 
 ******************************************
 Gaussian 09:  EM64L-G09RevC.01 23-Sep-2011
                16-Apr-2026 
 ******************************************
 %nprocshared=8
 Will use up to    8 processors via shared memory.
 %mem=16GB
 -----------------------------------
 # opt=modredundant b3lyp/6-31g(d,p)
 -----------------------------------
 1/14=-1,18=120,19=15,26=3,38=1/1,3;
 2/9=110,12=2,17=6,18=5,40=1/2;
 3/5=1,6=6,7=101,11=2,16=1,25=1,30=1,71=1,74=-5/1,2,3;
 4//1;
 5/5=2,38=5/2;
 6/7=2,8=2,9=2,10=2,28=1/1;
 7//1,2,3,16;
 1/14=-1,18=20,19=15/3(2);
 2/9=110/2;
 99//99;
 2/9=110/2;
 3/5=1,6=6,7=101,11=2,16=1,25=1,30=1,71=1,74=-5/1,2,3;
 4/5=5,16=3/1;
 5/5=2,38=5/2;
 7//1,2,3,16;
 1/14=-1,18=20,19=15/3(-5);
 2/9=110/2;
 6/7=2,8=2,9=2,10=2,19=2,28=1/1;
 99/9=1/99;
 ---------------
 QM dihedral opt
 ---------------
 Charge =  0 Multiplicity = 1
 Symbolic Z-Matrix:
 C                    -3.8106   -0.76813   0.56473 
 C                    -3.10996   0.26     -0.29924 
 O                    -3.70974   1.16608  -0.84616 
 C                    -1.60257   0.10593  -0.52217 
 N                    -0.93044  -0.65378   0.5323 
 C                     0.4372   -1.02141   0.20512 
 C                     1.42237   0.16399   0.33853 
 O                     1.03612   1.20467   0.86782 
 N                     2.70644   0.00186  -0.10855 
 C                     3.24097  -1.21293  -0.7006 
 C                     3.6497    1.10498   0.02105 
 H                    -4.88728  -0.59759   0.52587 
 H                    -3.45991  -0.69964   1.5999 
 H                    -3.56603  -1.78174   0.23129 
 H                    -1.50344  -0.45639  -1.46304 
 H                    -1.18721   1.10719  -0.70215 
 H                    -0.87744  -0.05649   1.35673 
 H                     0.76881  -1.82046   0.88313 
 H                     0.45741  -1.44068  -0.80645 
 H                     3.55477  -1.03775  -1.73818 
 H                     4.11915  -1.55429  -0.13787 
 H                     2.50827  -2.01727  -0.696 
 H                     3.12974   1.95177   0.46492 
 H                     4.49378   0.81755   0.66044 
 H                     4.04361   1.38886  -0.96258 
 
 The following ModRedundant input section has been read:
 D       5       6       7       9 S  36 10.000                                

 GradGradGradGradGradGradGradGradGradGradGradGradGradGradGradGradGradGrad
 Berny optimization.
 Initialization pass.
                           ----------------------------
                           !    Initial Parameters    !
                           ! (Angstroms and Degrees)  !
 --------------------------                            --------------------------
 ! Name  Definition              Value          Derivative Info.                !
 --------------------------------------------------------------------------------
 ! R1    R(1,2)                  1.5147         estimate D2E/DX2                !
 ! R2    R(1,12)                 1.0908         estimate D2E/DX2                !
 ! R3    R(1,13)                 1.0951         estimate D2E/DX2                !
 ! R4    R(1,14)                 1.0947         estimate D2E/DX2                !
 ! R5    R(2,3)                  1.2165         estimate D2E/DX2                !
 ! R6    R(2,4)                  1.5316         estimate D2E/DX2                !
 ! R7    R(4,5)                  1.4632         estimate D2E/DX2                !
 ! R8    R(4,15)                 1.1006         estimate D2E/DX2                !
 ! R9    R(4,16)                 1.0988         estimate D2E/DX2                !
 ! R10   R(5,6)                  1.4535         estimate D2E/DX2                !
 ! R11   R(5,17)                 1.0194         estimate D2E/DX2                !
 ! R12   R(6,7)                  1.5471         estimate D2E/DX2                !
 ! R13   R(6,18)                 1.0992         estimate D2E/DX2                !
 ! R14   R(6,19)                 1.0952         estimate D2E/DX2                !
 ! R15   R(7,8)                  1.2298         estimate D2E/DX2                !
 ! R16   R(7,9)                  1.3693         estimate D2E/DX2                !
 ! R17   R(9,10)                 1.4533         estimate D2E/DX2                !
 ! R18   R(9,11)                 1.4572         estimate D2E/DX2                !
 ! R19   R(10,20)                1.0981         estimate D2E/DX2                !
 ! R20   R(10,21)                1.0974         estimate D2E/DX2                !
 ! R21   R(10,22)                1.088          estimate D2E/DX2                !
 ! R22   R(11,23)                1.0883         estimate D2E/DX2                !
 ! R23   R(11,24)                1.0972         estimate D2E/DX2                !
 ! R24   R(11,25)                1.0969         estimate D2E/DX2                !
 ! A1    A(2,1,12)             109.2765         estimate D2E/DX2                !
 ! A2    A(2,1,13)             110.4007         estimate D2E/DX2                !
 ! A3    A(2,1,14)             110.5725         estimate D2E/DX2                !
 ! A4    A(12,1,13)            109.876          estimate D2E/DX2                !
 ! A5    A(12,1,14)            110.759          estimate D2E/DX2                !
 ! A6    A(13,1,14)            105.9197         estimate D2E/DX2                !
 ! A7    A(1,2,3)              122.2716         estimate D2E/DX2                !
 ! A8    A(1,2,4)              118.0343         estimate D2E/DX2                !
 ! A9    A(3,2,4)              119.6535         estimate D2E/DX2                !
 ! A10   A(2,4,5)              113.5442         estimate D2E/DX2                !
 ! A11   A(2,4,15)             105.3361         estimate D2E/DX2                !
 ! A12   A(2,4,16)             107.7107         estimate D2E/DX2                !
 ! A13   A(5,4,15)             108.0256         estimate D2E/DX2                !
 ! A14   A(5,4,16)             114.6784         estimate D2E/DX2                !
 ! A15   A(15,4,16)            106.9468         estimate D2E/DX2                !
 ! A16   A(4,5,6)              113.6618         estimate D2E/DX2                !
 ! A17   A(4,5,17)             107.6073         estimate D2E/DX2                !
 ! A18   A(6,5,17)             106.3394         estimate D2E/DX2                !
 ! A19   A(5,6,7)              112.7036         estimate D2E/DX2                !
 ! A20   A(5,6,18)             109.2018         estimate D2E/DX2                !
 ! A21   A(5,6,19)             108.7908         estimate D2E/DX2                !
 ! A22   A(7,6,18)             108.1611         estimate D2E/DX2                !
 ! A23   A(7,6,19)             111.1746         estimate D2E/DX2                !
 ! A24   A(18,6,19)            106.6112         estimate D2E/DX2                !
 ! A25   A(6,7,8)              119.045          estimate D2E/DX2                !
 ! A26   A(6,7,9)              118.5727         estimate D2E/DX2                !
 ! A27   A(8,7,9)              122.361          estimate D2E/DX2                !
 ! A28   A(7,9,10)             125.2331         estimate D2E/DX2                !
 ! A29   A(7,9,11)             119.2323         estimate D2E/DX2                !
 ! A30   A(10,9,11)            115.5271         estimate D2E/DX2                !
 ! A31   A(9,10,20)            110.8981         estimate D2E/DX2                !
 ! A32   A(9,10,21)            110.2082         estimate D2E/DX2                !
 ! A33   A(9,10,22)            111.625          estimate D2E/DX2                !
 ! A34   A(20,10,21)           107.7868         estimate D2E/DX2                !
 ! A35   A(20,10,22)           108.3235         estimate D2E/DX2                !
 ! A36   A(21,10,22)           107.8638         estimate D2E/DX2                !
 ! A37   A(9,11,23)            108.4222         estimate D2E/DX2                !
 ! A38   A(9,11,24)            110.5785         estimate D2E/DX2                !
 ! A39   A(9,11,25)            110.4022         estimate D2E/DX2                !
 ! A40   A(23,11,24)           109.4933         estimate D2E/DX2                !
 ! A41   A(23,11,25)           109.6289         estimate D2E/DX2                !
 ! A42   A(24,11,25)           108.3056         estimate D2E/DX2                !
 ! D1    D(12,1,2,3)             4.7315         estimate D2E/DX2                !
 ! D2    D(12,1,2,4)          -172.9428         estimate D2E/DX2                !
 ! D3    D(13,1,2,3)          -116.2226         estimate D2E/DX2                !
 ! D4    D(13,1,2,4)            66.1031         estimate D2E/DX2                !
 ! D5    D(14,1,2,3)           126.8946         estimate D2E/DX2                !
 ! D6    D(14,1,2,4)           -50.7797         estimate D2E/DX2                !
 ! D7    D(1,2,4,5)            -24.0834         estimate D2E/DX2                !
 ! D8    D(1,2,4,15)            93.9186         estimate D2E/DX2                !
 ! D9    D(1,2,4,16)          -152.1988         estimate D2E/DX2                !
 ! D10   D(3,2,4,5)            158.1793         estimate D2E/DX2                !
 ! D11   D(3,2,4,15)           -83.8186         estimate D2E/DX2                !
 ! D12   D(3,2,4,16)            30.0639         estimate D2E/DX2                !
 ! D13   D(2,4,5,6)            168.9022         estimate D2E/DX2                !
 ! D14   D(2,4,5,17)           -73.6265         estimate D2E/DX2                !
 ! D15   D(15,4,5,6)            52.4673         estimate D2E/DX2                !
 ! D16   D(15,4,5,17)          169.9386         estimate D2E/DX2                !
 ! D17   D(16,4,5,6)           -66.6674         estimate D2E/DX2                !
 ! D18   D(16,4,5,17)           50.8039         estimate D2E/DX2                !
 ! D19   D(4,5,6,7)             76.4432         estimate D2E/DX2                !
 ! D20   D(4,5,6,18)          -163.3259         estimate D2E/DX2                !
 ! D21   D(4,5,6,19)           -47.333          estimate D2E/DX2                !
 ! D22   D(17,5,6,7)           -41.7609         estimate D2E/DX2                !
 ! D23   D(17,5,6,18)           78.47           estimate D2E/DX2                !
 ! D24   D(17,5,6,19)         -165.5371         estimate D2E/DX2                !
 ! D25   D(5,6,7,8)             10.1643         estimate D2E/DX2                !
 ! D26   D(5,6,7,9)           -171.4739         Scan                            !
 ! D27   D(18,6,7,8)          -110.6634         estimate D2E/DX2                !
 ! D28   D(18,6,7,9)            67.6985         estimate D2E/DX2                !
 ! D29   D(19,6,7,8)           132.6112         estimate D2E/DX2                !
 ! D30   D(19,6,7,9)           -49.027          estimate D2E/DX2                !
 ! D31   D(6,7,9,10)            -0.497          estimate D2E/DX2                !
 ! D32   D(6,7,9,11)          -179.4521         estimate D2E/DX2                !
 ! D33   D(8,7,9,10)           177.8075         estimate D2E/DX2                !
 ! D34   D(8,7,9,11)            -1.1476         estimate D2E/DX2                !
 ! D35   D(7,9,10,20)          117.4558         estimate D2E/DX2                !
 ! D36   D(7,9,10,21)         -123.2706         estimate D2E/DX2                !
 ! D37   D(7,9,10,22)           -3.4325         estimate D2E/DX2                !
 ! D38   D(11,9,10,20)         -63.5547         estimate D2E/DX2                !
 ! D39   D(11,9,10,21)          55.719          estimate D2E/DX2                !
 ! D40   D(11,9,10,22)         175.557          estimate D2E/DX2                !
 ! D41   D(7,9,11,23)           -1.4956         estimate D2E/DX2                !
 ! D42   D(7,9,11,24)          118.5539         estimate D2E/DX2                !
 ! D43   D(7,9,11,25)         -121.6053         estimate D2E/DX2                !
 ! D44   D(10,9,11,23)         179.4502         estimate D2E/DX2                !
 ! D45   D(10,9,11,24)         -60.5002         estimate D2E/DX2                !
 ! D46   D(10,9,11,25)          59.3405         estimate D2E/DX2                !
 --------------------------------------------------------------------------------
 Trust Radius=3.00D-01 FncErr=1.00D-07 GrdErr=1.00D-06
 Number of optimizations in scan=  37
 Number of steps in this run=    122 maximum allowed number of steps=    150.
 GradGradGradGradGradGradGradGradGradGradGradGradGradGradGradGradGradGrad

                          Input orientation:                          
 ---------------------------------------------------------------------
 Center     Atomic      Atomic             Coordinates (Angstroms)
 Number     Number       Type             X           Y           Z
 ---------------------------------------------------------------------
      1          6           0       -3.810604   -0.768134    0.564729
      2          6           0       -3.109957    0.259996   -0.299239
      3          8           0       -3.709744    1.166076   -0.846164
      4          6           0       -1.602565    0.105927   -0.522166
      5          7           0       -0.930435   -0.653780    0.532302
      6          6           0        0.437195   -1.021413    0.205117
      7          6           0        1.422374    0.163987    0.338530
      8          8           0        1.036118    1.204668    0.867818
      9          7           0        2.706443    0.001862   -0.108553
     10          6           0        3.240973   -1.212934   -0.700602
     11          6           0        3.649704    1.104976    0.021050
     12          1           0       -4.887280   -0.597588    0.525870
     13          1           0       -3.459914   -0.699641    1.599900
     14          1           0       -3.566029   -1.781744    0.231285
     15          1           0       -1.503436   -0.456389   -1.463041
     16          1           0       -1.187209    1.107188   -0.702153
     17          1           0       -0.877444   -0.056494    1.356734
     18          1           0        0.768812   -1.820464    0.883132
     19          1           0        0.457414   -1.440677   -0.806445
     20          1           0        3.554767   -1.037753   -1.738184
     21          1           0        4.119150   -1.554290   -0.137867
     22          1           0        2.508265   -2.017274   -0.695996
     23          1           0        3.129735    1.951768    0.464924
     24          1           0        4.493781    0.817546    0.660440
     25          1           0        4.043614    1.388860   -0.962582
 ---------------------------------------------------------------------
                    Distance matrix (angstroms):
                    1          2          3          4          5
     1  C    0.000000
     2  C    1.514727   0.000000
     3  O    2.396239   1.216492   0.000000
     4  C    2.611658   1.531556   2.380986   0.000000
     5  N    2.882621   2.505347   3.596749   1.463153   0.000000
     6  C    4.270511   3.805085   4.804935   2.441405   1.453484
     7  C    5.320157   4.577990   5.361559   3.145540   2.498400
     8  O    5.241615   4.409577   5.046031   3.178354   2.726487
     9  N    6.596825   5.825247   6.562539   4.330064   3.750659
    10  C    7.177997   6.531839   7.348016   5.023056   4.385584
    11  C    7.711052   6.819794   7.410619   5.373966   4.932776
    12  H    1.090792   2.138956   2.525783   3.518901   3.957249
    13  H    1.095104   2.156410   3.086510   2.932891   2.745930
    14  H    1.094718   2.158277   3.141845   2.825983   2.882580
    15  H    3.087403   2.109159   2.807263   1.100578   2.085351
    16  H    3.464682   2.139400   2.527329   1.098836   2.165830
    17  H    3.120438   2.797593   3.790694   2.020506   1.019435
    18  H    4.709547   4.557539   5.653968   3.362926   2.090855
    19  H    4.533035   3.984430   4.915480   2.591585   2.082685
    20  H    7.721709   6.940696   7.643669   5.420773   5.041783
    21  H    7.999543   7.455043   8.318272   5.970095   5.172848
    22  H    6.563374   6.075178   6.987124   4.630024   3.897754
    23  H    7.454940   6.509976   7.008191   5.174567   4.824769
    24  H    8.454960   7.684314   8.348003   6.250631   5.621685
    25  H    8.286980   7.272409   7.757432   5.806825   5.581059
                    6          7          8          9         10
     6  C    0.000000
     7  C    1.547110   0.000000
     8  O    2.398608   1.229779   0.000000
     9  N    2.508977   1.369307   2.278163   0.000000
    10  C    2.952656   2.506593   3.628516   1.453263   0.000000
    11  C    3.856893   2.438699   2.749143   1.457189   2.461818
    12  H    5.350939   6.358209   6.200943   7.643720   8.243263
    13  H    4.151676   5.116018   4.937271   6.436993   7.103356
    14  H    4.074873   5.355514   5.523005   6.529980   6.894000
    15  H    2.620697   3.491545   3.826402   4.446090   4.864472
    16  H    2.827149   2.963541   2.723508   4.090799   4.999176
    17  H    1.996388   2.524780   2.343350   3.872301   4.746719
    18  H    1.099162   2.159116   3.036957   2.838789   2.998147
    19  H    1.095193   2.194781   3.183694   2.761540   2.794865
    20  H    3.673682   3.209988   4.261841   2.110960   1.098058
    21  H    3.736093   3.232960   4.257739   2.101954   1.097447
    22  H    2.468415   2.647131   3.872162   2.112173   1.088046
    23  H    4.019587   2.475322   2.259140   2.076099   3.374339
    24  H    4.477162   3.156629   3.485442   2.109803   2.746782
    25  H    4.492126   3.172397   3.525525   2.107405   2.735361
                   11         12         13         14         15
    11  C    0.000000
    12  H    8.719728   0.000000
    13  H    7.503071   1.789226   0.000000
    14  H    7.774584   1.798530   1.747946   0.000000
    15  H    5.585270   3.927608   3.642607   2.980201   0.000000
    16  H    4.890680   4.254977   3.705303   3.856944   1.767406
    17  H    4.860878   4.130606   2.672437   3.386977   2.915975
    18  H    4.195345   5.797796   4.433072   4.383748   3.539539
    19  H    4.166031   5.572398   4.656725   4.169089   2.290169
    20  H    2.774023   8.751448   7.775788   7.425501   5.098932
    21  H    2.705056   9.081388   7.822562   7.697401   5.880046
    22  H    3.400806   7.629060   6.528894   6.149177   4.372467
    23  H    1.088324   8.412815   7.193164   7.669873   5.566196
    24  H    1.097224   9.488151   8.151424   8.479447   6.488351
    25  H    1.096944   9.269430   8.199456   8.329749   5.867296
                   16         17         18         19         20
    16  H    0.000000
    17  H    2.385189   0.000000
    18  H    3.861385   2.458871   0.000000
    19  H    3.034350   2.894331   1.759511   0.000000
    20  H    5.306644   5.494168   3.904546   3.259460   0.000000
    21  H    5.963164   5.426157   3.512556   3.724005   1.773796
    22  H    4.839300   4.418301   2.357557   2.133226   1.772226
    23  H    4.550977   4.570112   4.469742   4.501818   3.737857
    24  H    5.849291   5.486240   4.569911   4.852173   3.174473
    25  H    5.244871   5.628951   4.942747   4.570721   2.594028
                   21         22         23         24         25
    21  H    0.000000
    22  H    1.766582   0.000000
    23  H    3.692525   4.181776   0.000000
    24  H    2.530464   3.717310   1.784743   0.000000
    25  H    3.057449   3.745679   1.786005   1.778553   0.000000
 Stoichiometry    C7H14N2O2
 Framework group  C1[X(C7H14N2O2)]
 Deg. of freedom    69
 Full point group                 C1      NOp   1
 Largest Abelian subgroup         C1      NOp   1
 Largest concise Abelian subgroup C1      NOp   1
                         Standard orientation:                         
 ---------------------------------------------------------------------
 Center     Atomic      Atomic             Coordinates (Angstroms)
 Number     Number       Type             X           Y           Z
 ---------------------------------------------------------------------
      1          6           0       -3.810604    0.768134   -0.564729
      2          6           0       -3.109957   -0.259996    0.299239
      3          8           0       -3.709744   -1.166076    0.846164
      4          6           0       -1.602565   -0.105927    0.522166
      5          7           0       -0.930435    0.653780   -0.532302
      6          6           0        0.437195    1.021413   -0.205117
      7          6           0        1.422374   -0.163987   -0.338530
      8          8           0        1.036118   -1.204668   -0.867818
      9          7           0        2.706443   -0.001862    0.108553
     10          6           0        3.240973    1.212934    0.700602
     11          6           0        3.649704   -1.104976   -0.021050
     12          1           0       -4.887280    0.597588   -0.525870
     13          1           0       -3.459914    0.699641   -1.599900
     14          1           0       -3.566029    1.781744   -0.231285
     15          1           0       -1.503436    0.456389    1.463041
     16          1           0       -1.187209   -1.107188    0.702153
     17          1           0       -0.877444    0.056494   -1.356734
     18          1           0        0.768812    1.820464   -0.883132
     19          1           0        0.457414    1.440677    0.806445
     20          1           0        3.554767    1.037753    1.738184
     21          1           0        4.119150    1.554290    0.137867
     22          1           0        2.508265    2.017274    0.695996
     23          1           0        3.129735   -1.951768   -0.464924
     24          1           0        4.493781   -0.817546   -0.660440
     25          1           0        4.043614   -1.388860    0.962582
 ---------------------------------------------------------------------
 Rotational constants (GHZ):      2.7142442      0.4282922      0.4038366
 Standard basis: 6-31G(d,p) (6D, 7F)
 There are   235 symmetry adapted basis functions of A   symmetry.
 Integral buffers will be    131072 words long.
 Raffenetti 2 integral format.
 Two-electron integral symmetry is turned on.
   235 basis functions,   406 primitive gaussians,   235 cartesian basis functions
    43 alpha electrons       43 beta electrons
       nuclear repulsion energy       626.7841078165 Hartrees.
 NAtoms=   25 NActive=   25 NUniq=   25 SFac= 1.00D+00 NAtFMM=   60 NAOKFM=F Big=F
 One-electron integrals computed using PRISM.
 NBasis=   235 RedAO= T  NBF=   235
 NBsUse=   235 1.00D-06 NBFU=   235
 Harris functional with IExCor=  402 diagonalized for initial guess.
 ExpMin= 1.61D-01 ExpMax= 5.48D+03 ExpMxC= 8.25D+02 IAcc=1 IRadAn=         1 AccDes= 0.00D+00
 HarFok:  IExCor=  402 AccDes= 0.00D+00 IRadAn=         1 IDoV= 1
 ScaDFX=  1.000000  1.000000  1.000000  1.000000
 FoFCou: FMM=F IPFlag=           0 FMFlag=      100000 FMFlg1=           0
         NFxFlg=           0 DoJE=T BraDBF=F KetDBF=T FulRan=T
         Omega=  0.000000  0.000000  1.000000  0.000000  0.000000 ICntrl=     500 IOpCl=  0
         NMat0=    1 NMatS0=    1 NMatT0=    0 NMatD0=    1 NMtDS0=    0 NMtDT0=    0
         I1Cent=           4 NGrid=           0.
 Petite list used in FoFCou.
 Initial guess orbital symmetries:
       Occupied  (A) (A) (A) (A) (A) (A) (A) (A) (A) (A) (A) (A)
                 (A) (A) (A) (A) (A) (A) (A) (A) (A) (A) (A) (A)
                 (A) (A) (A) (A) (A) (A) (A) (A) (A) (A) (A) (A)
                 (A) (A) (A) (A) (A) (A) (A)
       Virtual   (A) (A) (A) (A) (A) (A) (A) (A) (A) (A) (A) (A)
                 (A) (A) (A) (A) (A) (A) (A) (A) (A) (A) (A) (A)
                 (A) (A) (A) (A) (A) (A) (A) (A) (A) (A) (A) (A)
                 (A) (A) (A) (A) (A) (A) (A) (A) (A) (A) (A) (A)
                 (A) (A) (A) (A) (A) (A) (A) (A) (A) (A) (A) (A)
                 (A) (A) (A) (A) (A) (A) (A) (A) (A) (A) (A) (A)
                 (A) (A) (A) (A) (A) (A) (A) (A) (A) (A) (A) (A)
                 (A) (A) (A) (A) (A) (A) (A) (A) (A) (A) (A) (A)
                 (A) (A) (A) (A) (A) (A) (A) (A) (A) (A) (A) (A)
                 (A) (A) (A) (A) (A) (A) (A) (A) (A) (A) (A) (A)
                 (A) (A) (A) (A) (A) (A) (A) (A) (A) (A) (A) (A)
                 (A) (A) (A) (A) (A) (A) (A) (A) (A) (A) (A) (A)
                 (A) (A) (A) (A) (A) (A) (A) (A) (A) (A) (A) (A)
                 (A) (A) (A) (A) (A) (A) (A) (A) (A) (A) (A) (A)
                 (A) (A) (A) (A) (A) (A) (A) (A) (A) (A) (A) (A)
                 (A) (A) (A) (A) (A) (A) (A) (A) (A) (A) (A) (A)
 The electronic state of the initial guess is 1-A.
 Requested convergence on RMS density matrix=1.00D-08 within 128 cycles.
 Requested convergence on MAX density matrix=1.00D-06.
 Requested convergence on             energy=1.00D-06.
 No special actions if energy rises.
 Keep R1 ints in memory in canonical form, NReq=391462845.
 Integral accuracy reduced to 1.0D-05 until final iterations.
 Initial convergence to 1.0D-05 achieved.  Increase integral accuracy.
 SCF Done:  E(RB3LYP) =  -535.140867434     A.U. after   15 cycles
             Convg  =    0.5175D-08             -V/T =  2.0094

 **********************************************************************

            Population analysis using the SCF density.

 **********************************************************************

 Orbital symmetries:
       Occupied  (A) (A) (A) (A) (A) (A) (A) (A) (A) (A) (A) (A)
                 (A) (A) (A) (A) (A) (A) (A) (A) (A) (A) (A) (A)
                 (A) (A) (A) (A) (A) (A) (A) (A) (A) (A) (A) (A)
                 (A) (A) (A) (A) (A) (A) (A)
       Virtual   (A) (A) (A) (A) (A) (A) (A) (A) (A) (A) (A) (A)
                 (A) (A) (A) (A) (A) (A) (A) (A) (A) (A) (A) (A)
                 (A) (A) (A) (A) (A) (A) (A) (A) (A) (A) (A) (A)
                 (A) (A) (A) (A) (A) (A) (A) (A) (A) (A) (A) (A)
                 (A) (A) (A) (A) (A) (A) (A) (A) (A) (A) (A) (A)
                 (A) (A) (A) (A) (A) (A) (A) (A) (A) (A) (A) (A)
                 (A) (A) (A) (A) (A) (A) (A) (A) (A) (A) (A) (A)
                 (A) (A) (A) (A) (A) (A) (A) (A) (A) (A) (A) (A)
                 (A) (A) (A) (A) (A) (A) (A) (A) (A) (A) (A) (A)
                 (A) (A) (A) (A) (A) (A) (A) (A) (A) (A) (A) (A)
                 (A) (A) (A) (A) (A) (A) (A) (A) (A) (A) (A) (A)
                 (A) (A) (A) (A) (A) (A) (A) (A) (A) (A) (A) (A)
                 (A) (A) (A) (A) (A) (A) (A) (A) (A) (A) (A) (A)
                 (A) (A) (A) (A) (A) (A) (A) (A) (A) (A) (A) (A)
                 (A) (A) (A) (A) (A) (A) (A) (A) (A) (A) (A) (A)
                 (A) (A) (A) (A) (A) (A) (A) (A) (A) (A) (A) (A)
 The electronic state is 1-A.
 Alpha  occ. eigenvalues --  -19.12706 -19.11682 -14.37503 -14.32589 -10.28864
 Alpha  occ. eigenvalues --  -10.26651 -10.23719 -10.22769 -10.21938 -10.20980
 Alpha  occ. eigenvalues --  -10.17839  -1.03740  -1.02762  -0.94089  -0.90999
 Alpha  occ. eigenvalues --   -0.75809  -0.73578  -0.72274  -0.69445  -0.64928
 Alpha  occ. eigenvalues --   -0.55245  -0.53565  -0.51610  -0.49005  -0.48140
 Alpha  occ. eigenvalues --   -0.47683  -0.45213  -0.45054  -0.42557  -0.42017
 Alpha  occ. eigenvalues --   -0.41382  -0.41269  -0.40583  -0.39348  -0.38788
 Alpha  occ. eigenvalues --   -0.38230  -0.36976  -0.35733  -0.33372  -0.26077
 Alpha  occ. eigenvalues --   -0.24757  -0.24109  -0.22817
 Alpha virt. eigenvalues --   -0.00539   0.02149   0.07603   0.09237   0.10834
 Alpha virt. eigenvalues --    0.12519   0.13415   0.13997   0.14300   0.14927
 Alpha virt. eigenvalues --    0.15367   0.16093   0.16330   0.17188   0.17686
 Alpha virt. eigenvalues --    0.18337   0.20788   0.20942   0.22663   0.23964
 Alpha virt. eigenvalues --    0.26202   0.27952   0.30656   0.34240   0.34817
 Alpha virt. eigenvalues --    0.39130   0.48035   0.48982   0.49578   0.53126
 Alpha virt. eigenvalues --    0.54168   0.54261   0.54686   0.56139   0.58775
 Alpha virt. eigenvalues --    0.59002   0.60562   0.62235   0.64747   0.66350
 Alpha virt. eigenvalues --    0.68758   0.69689   0.69950   0.71066   0.73345
 Alpha virt. eigenvalues --    0.74216   0.75985   0.76725   0.77406   0.79332
 Alpha virt. eigenvalues --    0.80642   0.82672   0.84109   0.84937   0.85388
 Alpha virt. eigenvalues --    0.85994   0.86542   0.87586   0.88058   0.89903
 Alpha virt. eigenvalues --    0.90330   0.91154   0.91974   0.93672   0.94790
 Alpha virt. eigenvalues --    0.95470   0.98249   0.99803   1.02563   1.03988
 Alpha virt. eigenvalues --    1.04880   1.09901   1.11541   1.16769   1.18422
 Alpha virt. eigenvalues --    1.24683   1.27838   1.29305   1.31716   1.32662
 Alpha virt. eigenvalues --    1.35407   1.37131   1.38886   1.40007   1.43760
 Alpha virt. eigenvalues --    1.51573   1.54907   1.58499   1.60957   1.64042
 Alpha virt. eigenvalues --    1.68692   1.69588   1.71935   1.72207   1.72804
 Alpha virt. eigenvalues --    1.73777   1.76446   1.78865   1.81419   1.82454
 Alpha virt. eigenvalues --    1.83008   1.86023   1.87793   1.88905   1.91425
 Alpha virt. eigenvalues --    1.93446   1.95018   1.95398   1.96609   1.99785
 Alpha virt. eigenvalues --    2.01179   2.01426   2.02313   2.02621   2.03011
 Alpha virt. eigenvalues --    2.04128   2.05869   2.07109   2.08780   2.10127
 Alpha virt. eigenvalues --    2.11342   2.12170   2.14190   2.14548   2.18468
 Alpha virt. eigenvalues --    2.20508   2.22879   2.26408   2.28607   2.30483
 Alpha virt. eigenvalues --    2.31691   2.35041   2.37580   2.39971   2.40383
 Alpha virt. eigenvalues --    2.41777   2.43635   2.50281   2.52101   2.53076
 Alpha virt. eigenvalues --    2.54968   2.56250   2.58850   2.60898   2.62985
 Alpha virt. eigenvalues --    2.64569   2.65928   2.66645   2.69319   2.71782
 Alpha virt. eigenvalues --    2.73710   2.76304   2.80638   2.81995   2.83076
 Alpha virt. eigenvalues --    2.86312   2.86795   2.88658   2.89152   2.90470
 Alpha virt. eigenvalues --    2.93342   2.94284   2.97586   3.04065   3.05361
 Alpha virt. eigenvalues --    3.10078   3.12574   3.16997   3.23317   3.26831
 Alpha virt. eigenvalues --    3.27221   3.31432   3.35742   3.37725   3.41362
 Alpha virt. eigenvalues --    3.42792   3.43075   3.44325   3.48259   3.49223
 Alpha virt. eigenvalues --    3.52225   3.97296   4.00812   4.10852   4.15390
 Alpha virt. eigenvalues --    4.23566   4.33866   4.48397   4.50981   4.51348
 Alpha virt. eigenvalues --    4.64925   4.67669
          Condensed to atoms (all electrons):
              1          2          3          4          5          6
     1  C    5.150391   0.328088  -0.079953  -0.131260   0.010435   0.000226
     2  C    0.328088   4.542651   0.577125   0.307139  -0.039288   0.002120
     3  O   -0.079953   0.577125   8.006838  -0.077449   0.002165  -0.000059
     4  C   -0.131260   0.307139  -0.077449   5.125497   0.248792  -0.044348
     5  N    0.010435  -0.039288   0.002165   0.248792   6.813121   0.344094
     6  C    0.000226   0.002120  -0.000059  -0.044348   0.344094   5.058124
     7  C    0.000004  -0.000170  -0.000004  -0.001355  -0.051473   0.283520
     8  O    0.000005   0.000012   0.000000  -0.000678  -0.014564  -0.090586
     9  N    0.000000   0.000000   0.000000   0.000061   0.003646  -0.100784
    10  C    0.000000   0.000000   0.000000  -0.000007   0.000267   0.000065
    11  C    0.000000   0.000000   0.000000  -0.000006  -0.000100   0.004689
    12  H    0.356977  -0.024070   0.004499   0.006450   0.000427   0.000005
    13  H    0.360696  -0.016281   0.001342  -0.000344   0.003169   0.000115
    14  H    0.362836  -0.023073   0.001785   0.005275   0.000268  -0.000079
    15  H    0.001452  -0.017721  -0.000311   0.359112  -0.040906  -0.009463
    16  H    0.006917  -0.036942   0.005050   0.355860  -0.042525  -0.002300
    17  H   -0.000362  -0.000569   0.000121  -0.042092   0.340852  -0.054975
    18  H   -0.000006   0.000003   0.000001   0.004898  -0.037017   0.372201
    19  H   -0.000004  -0.000050  -0.000001  -0.008223  -0.035988   0.367056
    20  H    0.000000   0.000000   0.000000   0.000002  -0.000002  -0.000173
    21  H    0.000000   0.000000   0.000000   0.000000  -0.000008  -0.000333
    22  H    0.000000   0.000000   0.000000   0.000000   0.000067   0.006422
    23  H    0.000000   0.000000   0.000000  -0.000001  -0.000006   0.001119
    24  H    0.000000   0.000000   0.000000   0.000000   0.000001  -0.000107
    25  H    0.000000   0.000000   0.000000   0.000000   0.000002  -0.000085
              7          8          9         10         11         12
     1  C    0.000004   0.000005   0.000000   0.000000   0.000000   0.356977
     2  C   -0.000170   0.000012   0.000000   0.000000   0.000000  -0.024070
     3  O   -0.000004   0.000000   0.000000   0.000000   0.000000   0.004499
     4  C   -0.001355  -0.000678   0.000061  -0.000007  -0.000006   0.006450
     5  N   -0.051473  -0.014564   0.003646   0.000267  -0.000100   0.000427
     6  C    0.283520  -0.090586  -0.100784   0.000065   0.004689   0.000005
     7  C    4.519572   0.573345   0.236240  -0.027455  -0.023480   0.000000
     8  O    0.573345   8.104369  -0.095151   0.002698  -0.011767   0.000000
     9  N    0.236240  -0.095151   7.039750   0.301600   0.286783   0.000000
    10  C   -0.027455   0.002698   0.301600   4.802077  -0.051711   0.000000
    11  C   -0.023480  -0.011767   0.286783  -0.051711   4.821883   0.000000
    12  H    0.000000   0.000000   0.000000   0.000000   0.000000   0.578949
    13  H   -0.000004  -0.000004   0.000000   0.000000   0.000000  -0.024207
    14  H    0.000007   0.000000   0.000000   0.000000   0.000000  -0.024909
    15  H   -0.001083   0.000179   0.000018  -0.000015  -0.000001  -0.000240
    16  H    0.004524   0.007480  -0.000428  -0.000003   0.000028  -0.000061
    17  H   -0.003532   0.021089   0.000916  -0.000051  -0.000010  -0.000073
    18  H   -0.042097   0.000100   0.003679  -0.001422  -0.000274  -0.000001
    19  H   -0.029541   0.001873   0.001819  -0.002778  -0.000200   0.000000
    20  H    0.000654  -0.000031  -0.045763   0.384434  -0.001801   0.000000
    21  H    0.001264  -0.000029  -0.044941   0.383874  -0.002462   0.000000
    22  H   -0.008925   0.000082  -0.028406   0.385640   0.004320   0.000000
    23  H   -0.002651   0.023772  -0.035995   0.004293   0.384196   0.000000
    24  H    0.000827   0.000618  -0.044213  -0.002302   0.386349   0.000000
    25  H    0.000931   0.000638  -0.044836  -0.001286   0.386405   0.000000
             13         14         15         16         17         18
     1  C    0.360696   0.362836   0.001452   0.006917  -0.000362  -0.000006
     2  C   -0.016281  -0.023073  -0.017721  -0.036942  -0.000569   0.000003
     3  O    0.001342   0.001785  -0.000311   0.005050   0.000121   0.000001
     4  C   -0.000344   0.005275   0.359112   0.355860  -0.042092   0.004898
     5  N    0.003169   0.000268  -0.040906  -0.042525   0.340852  -0.037017
     6  C    0.000115  -0.000079  -0.009463  -0.002300  -0.054975   0.372201
     7  C   -0.000004   0.000007  -0.001083   0.004524  -0.003532  -0.042097
     8  O   -0.000004   0.000000   0.000179   0.007480   0.021089   0.000100
     9  N    0.000000   0.000000   0.000018  -0.000428   0.000916   0.003679
    10  C    0.000000   0.000000  -0.000015  -0.000003  -0.000051  -0.001422
    11  C    0.000000   0.000000  -0.000001   0.000028  -0.000010  -0.000274
    12  H   -0.024207  -0.024909  -0.000240  -0.000061  -0.000073  -0.000001
    13  H    0.570414  -0.025819   0.000046  -0.000206   0.000750  -0.000017
    14  H   -0.025819   0.574338   0.000131   0.000068  -0.000016  -0.000011
    15  H    0.000046   0.000131   0.605222  -0.032956   0.006397   0.000399
    16  H   -0.000206   0.000068  -0.032956   0.607105  -0.005125  -0.000250
    17  H    0.000750  -0.000016   0.006397  -0.005125   0.474336  -0.000100
    18  H   -0.000017  -0.000011   0.000399  -0.000250  -0.000100   0.604727
    19  H    0.000001   0.000012   0.008542  -0.000510   0.007168  -0.032821
    20  H    0.000000   0.000000   0.000003   0.000002   0.000000   0.000008
    21  H    0.000000   0.000000   0.000000   0.000000   0.000003   0.000197
    22  H    0.000000   0.000000  -0.000005  -0.000003  -0.000001   0.000733
    23  H    0.000000   0.000000   0.000000   0.000002  -0.000022  -0.000032
    24  H    0.000000   0.000000   0.000000   0.000000   0.000000   0.000037
    25  H    0.000000   0.000000   0.000000   0.000001   0.000000  -0.000008
             19         20         21         22         23         24
     1  C   -0.000004   0.000000   0.000000   0.000000   0.000000   0.000000
     2  C   -0.000050   0.000000   0.000000   0.000000   0.000000   0.000000
     3  O   -0.000001   0.000000   0.000000   0.000000   0.000000   0.000000
     4  C   -0.008223   0.000002   0.000000   0.000000  -0.000001   0.000000
     5  N   -0.035988  -0.000002  -0.000008   0.000067  -0.000006   0.000001
     6  C    0.367056  -0.000173  -0.000333   0.006422   0.001119  -0.000107
     7  C   -0.029541   0.000654   0.001264  -0.008925  -0.002651   0.000827
     8  O    0.001873  -0.000031  -0.000029   0.000082   0.023772   0.000618
     9  N    0.001819  -0.045763  -0.044941  -0.028406  -0.035995  -0.044213
    10  C   -0.002778   0.384434   0.383874   0.385640   0.004293  -0.002302
    11  C   -0.000200  -0.001801  -0.002462   0.004320   0.384196   0.386349
    12  H    0.000000   0.000000   0.000000   0.000000   0.000000   0.000000
    13  H    0.000001   0.000000   0.000000   0.000000   0.000000   0.000000
    14  H    0.000012   0.000000   0.000000   0.000000   0.000000   0.000000
    15  H    0.008542   0.000003   0.000000  -0.000005   0.000000   0.000000
    16  H   -0.000510   0.000002   0.000000  -0.000003   0.000002   0.000000
    17  H    0.007168   0.000000   0.000003  -0.000001  -0.000022   0.000000
    18  H   -0.032821   0.000008   0.000197   0.000733  -0.000032   0.000037
    19  H    0.606480   0.000316   0.000093   0.000825  -0.000034  -0.000007
    20  H    0.000316   0.611795  -0.047140  -0.029624  -0.000061  -0.001747
    21  H    0.000093  -0.047140   0.609486  -0.027154  -0.000045   0.007190
    22  H    0.000825  -0.029624  -0.027154   0.568007  -0.000237   0.000022
    23  H   -0.000034  -0.000061  -0.000045  -0.000237   0.510552  -0.024770
    24  H   -0.000007  -0.001747   0.007190   0.000022  -0.024770   0.609481
    25  H    0.000014   0.006486  -0.002096  -0.000018  -0.023898  -0.044402
             25
     1  C    0.000000
     2  C    0.000000
     3  O    0.000000
     4  C    0.000000
     5  N    0.000002
     6  C   -0.000085
     7  C    0.000931
     8  O    0.000638
     9  N   -0.044836
    10  C   -0.001286
    11  C    0.386405
    12  H    0.000000
    13  H    0.000000
    14  H    0.000000
    15  H    0.000000
    16  H    0.000001
    17  H    0.000000
    18  H   -0.000008
    19  H    0.000014
    20  H    0.006486
    21  H   -0.002096
    22  H   -0.000018
    23  H   -0.023898
    24  H   -0.044402
    25  H    0.608491
 Mulliken atomic charges:
              1
     1  C   -0.366440
     2  C    0.401028
     3  O   -0.441149
     4  C   -0.107322
     5  N   -0.505429
     6  C   -0.136464
     7  C    0.570880
     8  O   -0.523448
     9  N   -0.433997
    10  C   -0.177919
    11  C   -0.182842
    12  H    0.126254
    13  H    0.130351
    14  H    0.129188
    15  H    0.121200
    16  H    0.134274
    17  H    0.255296
    18  H    0.127075
    19  H    0.115962
    20  H    0.122640
    21  H    0.122102
    22  H    0.128256
    23  H    0.163819
    24  H    0.113024
    25  H    0.113662
 Sum of Mulliken atomic charges =   0.00000
 Mulliken charges with hydrogens summed into heavy atoms:
              1
     1  C    0.019353
     2  C    0.401028
     3  O   -0.441149
     4  C    0.148152
     5  N   -0.250133
     6  C    0.106573
     7  C    0.570880
     8  O   -0.523448
     9  N   -0.433997
    10  C    0.195079
    11  C    0.207662
 Sum of Mulliken charges with hydrogens summed into heavy atoms =   0.00000
 Electronic spatial extent (au):  <R**2>=           2797.3227
 Charge=              0.0000 electrons
 Dipole moment (field-independent basis, Debye):
    X=              4.5652    Y=              3.6849    Z=              0.3701  Tot=              5.8785
 Quadrupole moment (field-independent basis, Debye-Ang):
   XX=            -65.0650   YY=            -69.8869   ZZ=            -66.2607
   XY=             -4.0925   XZ=              7.0174   YZ=              1.5507
 Traceless Quadrupole moment (field-independent basis, Debye-Ang):
   XX=              2.0059   YY=             -2.8160   ZZ=              0.8101
   XY=             -4.0925   XZ=              7.0174   YZ=              1.5507
 Octapole moment (field-independent basis, Debye-Ang**2):
  XXX=             77.9757  YYY=             -0.5653  ZZZ=             -1.7527  XYY=             14.3801
  XXY=             27.5296  XXZ=            -16.3238  XZZ=              0.8470  YZZ=              2.0092
  YYZ=              1.8560  XYZ=             -9.6776
 Hexadecapole moment (field-independent basis, Debye-Ang**3):
 XXXX=          -2992.8812 YYYY=           -411.4583 ZZZZ=           -212.3196 XXXY=           -111.7860
 XXXZ=             78.0731 YYYX=              3.3397 YYYZ=              3.4175 ZZZX=             -0.3154
 ZZZY=              1.0032 XXYY=           -583.5279 XXZZ=           -540.3172 YYZZ=           -109.5120
 XXYZ=             33.1062 YYXZ=              5.9181 ZZXY=              0.3122
 N-N= 6.267841078165D+02 E-N=-2.500279940790D+03  KE= 5.301628992296D+02
 Calling FoFJK, ICntrl=      2127 FMM=F ISym2X=0 I1Cent= 0 IOpClX= 0 NMat=1 NMatS=1 NMatT=0.
 ***** Axes restored to original set *****
 -------------------------------------------------------------------
 Center     Atomic                   Forces (Hartrees/Bohr)
 Number     Number              X              Y              Z
 -------------------------------------------------------------------
      1        6          -0.000001586   -0.000005468   -0.000010179
      2        6          -0.000003098    0.000000083   -0.000004676
      3        8          -0.000000148    0.000001245   -0.000000397
      4        6           0.000009297   -0.000016443    0.000024166
      5        7          -0.000012612    0.000013544   -0.000012753
      6        6           0.000012355   -0.000009620    0.000002112
      7        6          -0.000001791    0.000002260   -0.000003153
      8        8           0.000002108   -0.000001240   -0.000000959
      9        7           0.000001202    0.000010651   -0.000003299
     10        6           0.000000616   -0.000007470    0.000002647
     11        6          -0.000006985   -0.000005745   -0.000003409
     12        1           0.000000124    0.000001776    0.000001778
     13        1          -0.000001274    0.000005472    0.000003426
     14        1           0.000002446    0.000002111    0.000007386
     15        1          -0.000001986    0.000000943   -0.000004490
     16        1          -0.000000971    0.000002311   -0.000007881
     17        1           0.000002938    0.000003356    0.000001847
     18        1          -0.000003066    0.000001413    0.000002934
     19        1          -0.000001016    0.000001485    0.000002921
     20        1          -0.000001029   -0.000002855    0.000001627
     21        1          -0.000000441    0.000001039    0.000001266
     22        1           0.000003741   -0.000000588    0.000002496
     23        1          -0.000000358    0.000002436   -0.000001535
     24        1           0.000000671    0.000001956   -0.000000005
     25        1           0.000000864   -0.000002656   -0.000001870
 -------------------------------------------------------------------
 Cartesian Forces:  Max     0.000024166 RMS     0.000005767

 GradGradGradGradGradGradGradGradGradGradGradGradGradGradGradGradGradGrad
 Berny optimization.
 Internal  Forces:  Max     0.000012690 RMS     0.000003043
 Search for a local minimum.
 Step number   1 out of a maximum of  122 on scan point     1 out of    37
 All quantities printed in internal units (Hartrees-Bohrs-Radians)
 Mixed Optimization -- En-DIIS/RFO-DIIS
 Second derivative matrix not updated -- first step.
 ITU=  0
     Eigenvalues ---    0.00349   0.00466   0.00571   0.00705   0.00856
     Eigenvalues ---    0.00935   0.00984   0.00987   0.01276   0.02098
     Eigenvalues ---    0.03088   0.03450   0.04673   0.06396   0.06457
     Eigenvalues ---    0.07253   0.07293   0.07355   0.07467   0.07476
     Eigenvalues ---    0.07655   0.10007   0.10125   0.10965   0.12579
     Eigenvalues ---    0.13387   0.16000   0.16000   0.16000   0.16000
     Eigenvalues ---    0.16000   0.16000   0.16000   0.16000   0.16000
     Eigenvalues ---    0.21973   0.22002   0.23659   0.24979   0.24990
     Eigenvalues ---    0.24996   0.24998   0.25000   0.25000   0.27898
     Eigenvalues ---    0.29280   0.30880   0.33618   0.33775   0.33811
     Eigenvalues ---    0.33898   0.33966   0.33991   0.34022   0.34219
     Eigenvalues ---    0.34229   0.34273   0.34721   0.35007   0.35039
     Eigenvalues ---    0.36572   0.37318   0.37792   0.37821   0.44428
     Eigenvalues ---    0.51110   0.91178   0.969551000.000001000.00000
     Eigenvalues --- 1000.000001000.000001000.000001000.000001000.00000
     Eigenvalues --- 1000.000001000.000001000.000001000.000001000.00000
     Eigenvalues --- 1000.000001000.000001000.000001000.000001000.00000
     Eigenvalues --- 1000.000001000.000001000.000001000.000001000.00000
     Eigenvalues --- 1000.000001000.000001000.000001000.000001000.00000
     Eigenvalues --- 1000.000001000.000001000.000001000.000001000.00000
     Eigenvalues --- 1000.000001000.000001000.000001000.000001000.00000
     Eigenvalues --- 1000.000001000.000001000.000001000.000001000.00000
     Eigenvalues --- 1000.000001000.00000
 RFO step:  Lambda=-1.25036929D-08 EMin= 3.48519615D-03
 Linear search not attempted -- first point.
 Iteration  1 RMS(Cart)=  0.00019246 RMS(Int)=  0.00000004
 Iteration  2 RMS(Cart)=  0.00000004 RMS(Int)=  0.00000000
 Iteration  1 RMS(Cart)=  0.00000000 RMS(Int)=  0.00000000
 Variable       Old X    -DE/DX   Delta X   Delta X   Delta X     New X
                                 (Linear)    (Quad)   (Total)
    R1        2.86242   0.00000   0.00000   0.00000   0.00000   2.86242
    R2        2.06130   0.00000   0.00000   0.00000   0.00000   2.06130
    R3        2.06945   0.00000   0.00000   0.00001   0.00001   2.06945
    R4        2.06872   0.00000   0.00000  -0.00001  -0.00001   2.06871
    R5        2.29884   0.00000   0.00000   0.00000   0.00000   2.29884
    R6        2.89422   0.00000   0.00000   0.00001   0.00001   2.89423
    R7        2.76496  -0.00001   0.00000  -0.00003  -0.00003   2.76492
    R8        2.07979   0.00000   0.00000   0.00001   0.00001   2.07980
    R9        2.07650   0.00000   0.00000   0.00001   0.00001   2.07651
   R10        2.74669   0.00001   0.00000   0.00002   0.00002   2.74671
   R11        1.92645   0.00000   0.00000   0.00001   0.00001   1.92646
   R12        2.92361   0.00000   0.00000   0.00000   0.00000   2.92361
   R13        2.07711   0.00000   0.00000   0.00000   0.00000   2.07711
   R14        2.06962   0.00000   0.00000  -0.00001  -0.00001   2.06961
   R15        2.32395   0.00000   0.00000   0.00000   0.00000   2.32394
   R16        2.58761   0.00000   0.00000   0.00000   0.00000   2.58761
   R17        2.74627   0.00001   0.00000   0.00001   0.00001   2.74628
   R18        2.75369  -0.00001   0.00000  -0.00002  -0.00002   2.75367
   R19        2.07503   0.00000   0.00000   0.00000   0.00000   2.07503
   R20        2.07387   0.00000   0.00000   0.00000   0.00000   2.07387
   R21        2.05611   0.00000   0.00000  -0.00001  -0.00001   2.05610
   R22        2.05663   0.00000   0.00000   0.00001   0.00001   2.05664
   R23        2.07345   0.00000   0.00000   0.00000   0.00000   2.07346
   R24        2.07292   0.00000   0.00000   0.00000   0.00000   2.07292
    A1        1.90723   0.00000   0.00000   0.00000   0.00000   1.90724
    A2        1.92686   0.00000   0.00000  -0.00003  -0.00003   1.92683
    A3        1.92985   0.00000   0.00000   0.00003   0.00003   1.92988
    A4        1.91770   0.00000   0.00000  -0.00003  -0.00003   1.91767
    A5        1.93311   0.00000   0.00000   0.00003   0.00003   1.93314
    A6        1.84865   0.00000   0.00000  -0.00001  -0.00001   1.84864
    A7        2.13404   0.00000   0.00000   0.00000   0.00000   2.13404
    A8        2.06009   0.00000   0.00000   0.00000   0.00000   2.06009
    A9        2.08835   0.00000   0.00000   0.00000   0.00000   2.08835
   A10        1.98172   0.00001   0.00000   0.00004   0.00004   1.98176
   A11        1.83846  -0.00001   0.00000  -0.00005  -0.00005   1.83841
   A12        1.87991   0.00000   0.00000  -0.00001  -0.00001   1.87989
   A13        1.88540   0.00000   0.00000   0.00002   0.00002   1.88542
   A14        2.00152   0.00000   0.00000   0.00004   0.00004   2.00156
   A15        1.86657   0.00000   0.00000  -0.00005  -0.00005   1.86652
   A16        1.98377   0.00000   0.00000   0.00002   0.00002   1.98379
   A17        1.87810   0.00000   0.00000   0.00002   0.00002   1.87812
   A18        1.85597   0.00000   0.00000  -0.00002  -0.00002   1.85596
   A19        1.96705  -0.00001   0.00000  -0.00005  -0.00005   1.96700
   A20        1.90593   0.00000   0.00000  -0.00001  -0.00001   1.90593
   A21        1.89876   0.00000   0.00000   0.00000   0.00000   1.89875
   A22        1.88777   0.00000   0.00000   0.00003   0.00003   1.88780
   A23        1.94036   0.00000   0.00000   0.00000   0.00000   1.94037
   A24        1.86072   0.00000   0.00000   0.00002   0.00002   1.86074
   A25        2.07773   0.00000   0.00000  -0.00002  -0.00002   2.07771
   A26        2.06948   0.00001   0.00000   0.00004   0.00004   2.06952
   A27        2.13560  -0.00001   0.00000  -0.00002  -0.00002   2.13558
   A28        2.18573   0.00001   0.00000   0.00003   0.00003   2.18575
   A29        2.08100  -0.00001   0.00000  -0.00003  -0.00003   2.08097
   A30        2.01633   0.00000   0.00000   0.00000   0.00000   2.01633
   A31        1.93554   0.00000   0.00000  -0.00001  -0.00001   1.93553
   A32        1.92350   0.00000   0.00000  -0.00001  -0.00001   1.92349
   A33        1.94822   0.00000   0.00000   0.00003   0.00003   1.94825
   A34        1.88123   0.00000   0.00000   0.00000   0.00000   1.88123
   A35        1.89060   0.00000   0.00000  -0.00001  -0.00001   1.89060
   A36        1.88258   0.00000   0.00000   0.00000   0.00000   1.88258
   A37        1.89232   0.00000   0.00000   0.00000   0.00000   1.89233
   A38        1.92996   0.00000   0.00000   0.00000   0.00000   1.92996
   A39        1.92688   0.00000   0.00000   0.00000   0.00000   1.92688
   A40        1.91102   0.00000   0.00000  -0.00001  -0.00001   1.91101
   A41        1.91338   0.00000   0.00000   0.00001   0.00001   1.91339
   A42        1.89029   0.00000   0.00000   0.00000   0.00000   1.89028
    D1        0.08258   0.00000   0.00000   0.00037   0.00037   0.08295
    D2       -3.01842   0.00000   0.00000   0.00032   0.00032  -3.01810
    D3       -2.02847   0.00000   0.00000   0.00042   0.00042  -2.02805
    D4        1.15372   0.00000   0.00000   0.00036   0.00036   1.15408
    D5        2.21473   0.00000   0.00000   0.00043   0.00043   2.21516
    D6       -0.88627   0.00000   0.00000   0.00038   0.00038  -0.88590
    D7       -0.42033   0.00000   0.00000   0.00018   0.00018  -0.42016
    D8        1.63919   0.00000   0.00000   0.00019   0.00019   1.63938
    D9       -2.65637   0.00000   0.00000   0.00011   0.00011  -2.65626
   D10        2.76075   0.00000   0.00000   0.00012   0.00012   2.76088
   D11       -1.46291   0.00000   0.00000   0.00013   0.00013  -1.46278
   D12        0.52471   0.00000   0.00000   0.00005   0.00005   0.52477
   D13        2.94790   0.00000   0.00000  -0.00009  -0.00009   2.94781
   D14       -1.28502   0.00000   0.00000  -0.00009  -0.00009  -1.28511
   D15        0.91573   0.00000   0.00000  -0.00006  -0.00006   0.91566
   D16        2.96599   0.00000   0.00000  -0.00006  -0.00006   2.96593
   D17       -1.16357   0.00000   0.00000  -0.00004  -0.00004  -1.16360
   D18        0.88670   0.00000   0.00000  -0.00004  -0.00004   0.88666
   D19        1.33419   0.00000   0.00000   0.00004   0.00004   1.33423
   D20       -2.85057   0.00000   0.00000   0.00005   0.00005  -2.85052
   D21       -0.82612   0.00000   0.00000   0.00007   0.00007  -0.82604
   D22       -0.72887   0.00000   0.00000   0.00002   0.00002  -0.72884
   D23        1.36956   0.00000   0.00000   0.00003   0.00003   1.36959
   D24       -2.88917   0.00000   0.00000   0.00005   0.00005  -2.88911
   D25        0.17740   0.00000   0.00000   0.00012   0.00012   0.17752
   D26       -2.99278   0.00000   0.00000   0.00000   0.00000  -2.99278
   D27       -1.93144   0.00000   0.00000   0.00014   0.00014  -1.93130
   D28        1.18156   0.00000   0.00000   0.00002   0.00002   1.18158
   D29        2.31450   0.00000   0.00000   0.00008   0.00008   2.31459
   D30       -0.85568   0.00000   0.00000  -0.00004  -0.00004  -0.85572
   D31       -0.00867   0.00000   0.00000  -0.00003  -0.00003  -0.00870
   D32       -3.13203   0.00000   0.00000   0.00007   0.00007  -3.13196
   D33        3.10333   0.00000   0.00000  -0.00016  -0.00016   3.10317
   D34       -0.02003   0.00000   0.00000  -0.00006  -0.00006  -0.02008
   D35        2.04999   0.00000   0.00000  -0.00003  -0.00003   2.04996
   D36       -2.15148   0.00000   0.00000  -0.00004  -0.00004  -2.15152
   D37       -0.05991   0.00000   0.00000  -0.00004  -0.00004  -0.05995
   D38       -1.10924   0.00000   0.00000  -0.00013  -0.00013  -1.10937
   D39        0.97248   0.00000   0.00000  -0.00014  -0.00014   0.97234
   D40        3.06405   0.00000   0.00000  -0.00013  -0.00013   3.06391
   D41       -0.02610   0.00000   0.00000  -0.00009  -0.00009  -0.02619
   D42        2.06916   0.00000   0.00000  -0.00010  -0.00010   2.06906
   D43       -2.12241   0.00000   0.00000  -0.00010  -0.00010  -2.12252
   D44        3.13200   0.00000   0.00000   0.00000   0.00000   3.13200
   D45       -1.05593   0.00000   0.00000  -0.00001  -0.00001  -1.05594
   D46        1.03569   0.00000   0.00000  -0.00001  -0.00001   1.03567
         Item               Value     Threshold  Converged?
 Maximum Force            0.000013     0.000450     YES
 RMS     Force            0.000003     0.000300     YES
 Maximum Displacement     0.000994     0.001800     YES
 RMS     Displacement     0.000192     0.001200     YES
 Predicted change in Energy=-6.251844D-09
 Optimization completed.
    -- Stationary point found.
                           ----------------------------
                           !   Optimized Parameters   !
                           ! (Angstroms and Degrees)  !
 --------------------------                            --------------------------
 ! Name  Definition              Value          Derivative Info.                !
 --------------------------------------------------------------------------------
 ! R1    R(1,2)                  1.5147         -DE/DX =    0.0                 !
 ! R2    R(1,12)                 1.0908         -DE/DX =    0.0                 !
 ! R3    R(1,13)                 1.0951         -DE/DX =    0.0                 !
 ! R4    R(1,14)                 1.0947         -DE/DX =    0.0                 !
 ! R5    R(2,3)                  1.2165         -DE/DX =    0.0                 !
 ! R6    R(2,4)                  1.5316         -DE/DX =    0.0                 !
 ! R7    R(4,5)                  1.4632         -DE/DX =    0.0                 !
 ! R8    R(4,15)                 1.1006         -DE/DX =    0.0                 !
 ! R9    R(4,16)                 1.0988         -DE/DX =    0.0                 !
 ! R10   R(5,6)                  1.4535         -DE/DX =    0.0                 !
 ! R11   R(5,17)                 1.0194         -DE/DX =    0.0                 !
 ! R12   R(6,7)                  1.5471         -DE/DX =    0.0                 !
 ! R13   R(6,18)                 1.0992         -DE/DX =    0.0                 !
 ! R14   R(6,19)                 1.0952         -DE/DX =    0.0                 !
 ! R15   R(7,8)                  1.2298         -DE/DX =    0.0                 !
 ! R16   R(7,9)                  1.3693         -DE/DX =    0.0                 !
 ! R17   R(9,10)                 1.4533         -DE/DX =    0.0                 !
 ! R18   R(9,11)                 1.4572         -DE/DX =    0.0                 !
 ! R19   R(10,20)                1.0981         -DE/DX =    0.0                 !
 ! R20   R(10,21)                1.0974         -DE/DX =    0.0                 !
 ! R21   R(10,22)                1.088          -DE/DX =    0.0                 !
 ! R22   R(11,23)                1.0883         -DE/DX =    0.0                 !
 ! R23   R(11,24)                1.0972         -DE/DX =    0.0                 !
 ! R24   R(11,25)                1.0969         -DE/DX =    0.0                 !
 ! A1    A(2,1,12)             109.2765         -DE/DX =    0.0                 !
 ! A2    A(2,1,13)             110.4007         -DE/DX =    0.0                 !
 ! A3    A(2,1,14)             110.5725         -DE/DX =    0.0                 !
 ! A4    A(12,1,13)            109.876          -DE/DX =    0.0                 !
 ! A5    A(12,1,14)            110.759          -DE/DX =    0.0                 !
 ! A6    A(13,1,14)            105.9197         -DE/DX =    0.0                 !
 ! A7    A(1,2,3)              122.2716         -DE/DX =    0.0                 !
 ! A8    A(1,2,4)              118.0343         -DE/DX =    0.0                 !
 ! A9    A(3,2,4)              119.6535         -DE/DX =    0.0                 !
 ! A10   A(2,4,5)              113.5442         -DE/DX =    0.0                 !
 ! A11   A(2,4,15)             105.3361         -DE/DX =    0.0                 !
 ! A12   A(2,4,16)             107.7107         -DE/DX =    0.0                 !
 ! A13   A(5,4,15)             108.0256         -DE/DX =    0.0                 !
 ! A14   A(5,4,16)             114.6784         -DE/DX =    0.0                 !
 ! A15   A(15,4,16)            106.9468         -DE/DX =    0.0                 !
 ! A16   A(4,5,6)              113.6618         -DE/DX =    0.0                 !
 ! A17   A(4,5,17)             107.6073         -DE/DX =    0.0                 !
 ! A18   A(6,5,17)             106.3394         -DE/DX =    0.0                 !
 ! A19   A(5,6,7)              112.7036         -DE/DX =    0.0                 !
 ! A20   A(5,6,18)             109.2018         -DE/DX =    0.0                 !
 ! A21   A(5,6,19)             108.7908         -DE/DX =    0.0                 !
 ! A22   A(7,6,18)             108.1611         -DE/DX =    0.0                 !
 ! A23   A(7,6,19)             111.1746         -DE/DX =    0.0                 !
 ! A24   A(18,6,19)            106.6112         -DE/DX =    0.0                 !
 ! A25   A(6,7,8)              119.045          -DE/DX =    0.0                 !
 ! A26   A(6,7,9)              118.5727         -DE/DX =    0.0                 !
 ! A27   A(8,7,9)              122.361          -DE/DX =    0.0                 !
 ! A28   A(7,9,10)             125.2331         -DE/DX =    0.0                 !
 ! A29   A(7,9,11)             119.2323         -DE/DX =    0.0                 !
 ! A30   A(10,9,11)            115.5271         -DE/DX =    0.0                 !
 ! A31   A(9,10,20)            110.8981         -DE/DX =    0.0                 !
 ! A32   A(9,10,21)            110.2082         -DE/DX =    0.0                 !
 ! A33   A(9,10,22)            111.625          -DE/DX =    0.0                 !
 ! A34   A(20,10,21)           107.7868         -DE/DX =    0.0                 !
 ! A35   A(20,10,22)           108.3235         -DE/DX =    0.0                 !
 ! A36   A(21,10,22)           107.8638         -DE/DX =    0.0                 !
 ! A37   A(9,11,23)            108.4222         -DE/DX =    0.0                 !
 ! A38   A(9,11,24)            110.5785         -DE/DX =    0.0                 !
 ! A39   A(9,11,25)            110.4022         -DE/DX =    0.0                 !
 ! A40   A(23,11,24)           109.4933         -DE/DX =    0.0                 !
 ! A41   A(23,11,25)           109.6289         -DE/DX =    0.0                 !
 ! A42   A(24,11,25)           108.3056         -DE/DX =    0.0                 !
 ! D1    D(12,1,2,3)             4.7315         -DE/DX =    0.0                 !
 ! D2    D(12,1,2,4)          -172.9428         -DE/DX =    0.0                 !
 ! D3    D(13,1,2,3)          -116.2226         -DE/DX =    0.0                 !
 ! D4    D(13,1,2,4)            66.1031         -DE/DX =    0.0                 !
 ! D5    D(14,1,2,3)           126.8946         -DE/DX =    0.0                 !
 ! D6    D(14,1,2,4)           -50.7797         -DE/DX =    0.0                 !
 ! D7    D(1,2,4,5)            -24.0834         -DE/DX =    0.0                 !
 ! D8    D(1,2,4,15)            93.9186         -DE/DX =    0.0                 !
 ! D9    D(1,2,4,16)          -152.1988         -DE/DX =    0.0                 !
 ! D10   D(3,2,4,5)            158.1793         -DE/DX =    0.0                 !
 ! D11   D(3,2,4,15)           -83.8186         -DE/DX =    0.0                 !
 ! D12   D(3,2,4,16)            30.0639         -DE/DX =    0.0                 !
 ! D13   D(2,4,5,6)            168.9022         -DE/DX =    0.0                 !
 ! D14   D(2,4,5,17)           -73.6265         -DE/DX =    0.0                 !
 ! D15   D(15,4,5,6)            52.4673         -DE/DX =    0.0                 !
 ! D16   D(15,4,5,17)          169.9386         -DE/DX =    0.0                 !
 ! D17   D(16,4,5,6)           -66.6674         -DE/DX =    0.0                 !
 ! D18   D(16,4,5,17)           50.8039         -DE/DX =    0.0                 !
 ! D19   D(4,5,6,7)             76.4432         -DE/DX =    0.0                 !
 ! D20   D(4,5,6,18)          -163.3259         -DE/DX =    0.0                 !
 ! D21   D(4,5,6,19)           -47.333          -DE/DX =    0.0                 !
 ! D22   D(17,5,6,7)           -41.7609         -DE/DX =    0.0                 !
 ! D23   D(17,5,6,18)           78.47           -DE/DX =    0.0                 !
 ! D24   D(17,5,6,19)         -165.5371         -DE/DX =    0.0                 !
 ! D25   D(5,6,7,8)             10.1643         -DE/DX =    0.0                 !
 ! D26   D(5,6,7,9)           -171.4739         -DE/DX =    0.0                 !
 ! D27   D(18,6,7,8)          -110.6634         -DE/DX =    0.0                 !
 ! D28   D(18,6,7,9)            67.6985         -DE/DX =    0.0                 !
 ! D29   D(19,6,7,8)           132.6112         -DE/DX =    0.0                 !
 ! D30   D(19,6,7,9)           -49.027          -DE/DX =    0.0                 !
 ! D31   D(6,7,9,10)            -0.497          -DE/DX =    0.0                 !
 ! D32   D(6,7,9,11)          -179.4521         -DE/DX =    0.0                 !
 ! D33   D(8,7,9,10)           177.8075         -DE/DX =    0.0                 !
 ! D34   D(8,7,9,11)            -1.1476         -DE/DX =    0.0                 !
 ! D35   D(7,9,10,20)          117.4558         -DE/DX =    0.0                 !
 ! D36   D(7,9,10,21)         -123.2706         -DE/DX =    0.0                 !
 ! D37   D(7,9,10,22)           -3.4325         -DE/DX =    0.0                 !
 ! D38   D(11,9,10,20)         -63.5547         -DE/DX =    0.0                 !
 ! D39   D(11,9,10,21)          55.719          -DE/DX =    0.0                 !
 ! D40   D(11,9,10,22)         175.557          -DE/DX =    0.0                 !
 ! D41   D(7,9,11,23)           -1.4956         -DE/DX =    0.0                 !
 ! D42   D(7,9,11,24)          118.5539         -DE/DX =    0.0                 !
 ! D43   D(7,9,11,25)         -121.6053         -DE/DX =    0.0                 !
 ! D44   D(10,9,11,23)         179.4502         -DE/DX =    0.0                 !
 ! D45   D(10,9,11,24)         -60.5002         -DE/DX =    0.0                 !
 ! D46   D(10,9,11,25)          59.3405         -DE/DX =    0.0                 !
 --------------------------------------------------------------------------------
 Iteration  1 RMS(Cart)=  0.04382927 RMS(Int)=  0.01262913
 Iteration  2 RMS(Cart)=  0.00114852 RMS(Int)=  0.01261976
 Iteration  3 RMS(Cart)=  0.00000383 RMS(Int)=  0.01261976
 Iteration  4 RMS(Cart)=  0.00000006 RMS(Int)=  0.01261976
 Iteration  1 RMS(Cart)=  0.02596170 RMS(Int)=  0.00739193
 Iteration  2 RMS(Cart)=  0.01532068 RMS(Int)=  0.00823972
 Iteration  3 RMS(Cart)=  0.00901289 RMS(Int)=  0.00937922
 Iteration  4 RMS(Cart)=  0.00529265 RMS(Int)=  0.01019581
 Iteration  5 RMS(Cart)=  0.00310495 RMS(Int)=  0.01071297
 Iteration  6 RMS(Cart)=  0.00182047 RMS(Int)=  0.01102722
 Iteration  7 RMS(Cart)=  0.00106700 RMS(Int)=  0.01121483
 Iteration  8 RMS(Cart)=  0.00062525 RMS(Int)=  0.01132588
 Iteration  9 RMS(Cart)=  0.00036635 RMS(Int)=  0.01139131
 Iteration 10 RMS(Cart)=  0.00021464 RMS(Int)=  0.01142977
 Iteration 11 RMS(Cart)=  0.00012575 RMS(Int)=  0.01145234
 Iteration 12 RMS(Cart)=  0.00007367 RMS(Int)=  0.01146558
 Iteration 13 RMS(Cart)=  0.00004316 RMS(Int)=  0.01147334
 Iteration 14 RMS(Cart)=  0.00002528 RMS(Int)=  0.01147789
 Iteration 15 RMS(Cart)=  0.00001481 RMS(Int)=  0.01148056
 Iteration 16 RMS(Cart)=  0.00000868 RMS(Int)=  0.01148212
 Iteration 17 RMS(Cart)=  0.00000508 RMS(Int)=  0.01148303
 Iteration 18 RMS(Cart)=  0.00000298 RMS(Int)=  0.01148357
 Iteration 19 RMS(Cart)=  0.00000174 RMS(Int)=  0.01148388
 Iteration 20 RMS(Cart)=  0.00000102 RMS(Int)=  0.01148407
 Iteration 21 RMS(Cart)=  0.00000060 RMS(Int)=  0.01148417
 GradGradGradGradGradGradGradGradGradGradGradGradGradGradGradGradGradGrad

                          Input orientation:                          
 ---------------------------------------------------------------------
 Center     Atomic      Atomic             Coordinates (Angstroms)
 Number     Number       Type             X           Y           Z
 ---------------------------------------------------------------------
      1          6           0       -3.805710   -0.741318    0.487733
      2          6           0       -3.043253    0.263513   -0.351205
      3          8           0       -3.598272    1.171122   -0.941461
      4          6           0       -1.528613    0.082800   -0.491115
      5          7           0       -0.926008   -0.672612    0.607791
      6          6           0        0.451116   -1.066193    0.359010
      7          6           0        1.437249    0.120024    0.477304
      8          8           0        1.064034    1.154951    1.026891
      9          7           0        2.677351   -0.000040   -0.092261
     10          6           0        3.181967   -1.187991   -0.760691
     11          6           0        3.603150    1.123455   -0.025573
     12          1           0       -4.876026   -0.554744    0.388796
     13          1           0       -3.509838   -0.663484    1.539380
     14          1           0       -3.559943   -1.763248    0.181585
     15          1           0       -1.388661   -0.494013   -1.418027
     16          1           0       -1.087945    1.074867   -0.661820
     17          1           0       -0.907226   -0.064813    1.426081
     18          1           0        0.798250   -1.875399    1.016965
     19          1           0        0.446493   -1.469431   -0.659274
     20          1           0        3.392371   -0.982613   -1.819161
     21          1           0        4.117437   -1.519138   -0.290903
     22          1           0        2.471603   -2.010522   -0.706319
     23          1           0        3.107612    1.947152    0.485233
     24          1           0        4.510567    0.843607    0.525115
     25          1           0        3.896024    1.438350   -1.035234
 ---------------------------------------------------------------------
                    Distance matrix (angstroms):
                    1          2          3          4          5
     1  C    0.000000
     2  C    1.514875   0.000000
     3  O    2.396467   1.216635   0.000000
     4  C    2.611989   1.531785   2.381333   0.000000
     5  N    2.883022   2.505739   3.597295   1.463344   0.000000
     6  C    4.271145   3.805671   4.805658   2.441766   1.453708
     7  C    5.313252   4.558719   5.336120   3.120186   2.496054
     8  O    5.253659   4.423077   5.060807   3.189932   2.734209
     9  N    6.551028   5.732523   6.440203   4.225645   3.731839
    10  C    7.112364   6.405303   7.181207   4.886424   4.360484
    11  C    7.657158   6.709710   7.259587   5.256870   4.913276
    12  H    1.090951   2.139206   2.526034   3.519358   3.957839
    13  H    1.095244   2.156697   3.086774   2.933447   2.746656
    14  H    1.094746   2.158378   3.142169   2.826079   2.882490
    15  H    3.087913   2.109414   2.807521   1.100666   2.085637
    16  H    3.465003   2.139627   2.527688   1.098875   2.166061
    17  H    3.120795   2.798062   3.791374   2.020780   1.019496
    18  H    4.771024   4.604777   5.696150   3.394575   2.141771
    19  H    4.463967   3.908494   4.838623   2.517685   2.030796
    20  H    7.562563   6.717512   7.367362   5.207196   4.963325
    21  H    7.999221   7.379496   8.197127   5.872322   5.192359
    22  H    6.514699   5.975866   6.857225   4.519960   3.880806
    23  H    7.417675   6.431750   6.899751   5.091526   4.811266
    24  H    8.466040   7.626574   8.246901   6.171162   5.644652
    25  H    8.147828   7.071188   7.499646   5.617852   5.514317
                    6          7          8          9         10
     6  C    0.000000
     7  C    1.547115   0.000000
     8  O    2.399003   1.229800   0.000000
     9  N    2.509273   1.369917   2.278003   0.000000
    10  C    2.954000   2.507504   3.629114   1.453500   0.000000
    11  C    3.857173   2.439443   2.748779   1.457323   2.461823
    12  H    5.351720   6.349850   6.214059   7.588980   8.164164
    13  H    4.152663   5.120114   4.948703   6.433019   7.095470
    14  H    4.075041   5.348467   5.532774   6.487506   6.831703
    15  H    2.621074   3.457614   3.835677   4.305127   4.669511
    16  H    2.827533   2.930177   2.736635   3.956928   4.833472
    17  H    1.996621   2.535924   2.352242   3.893425   4.771269
    18  H    1.099191   2.163624   3.041999   2.877217   3.051999
    19  H    1.095228   2.190840   3.179920   2.730814   2.751784
    20  H    3.660928   3.211240   4.253275   2.111608   1.098548
    21  H    3.750927   3.234254   4.267388   2.102609   1.097936
    22  H    2.471650   2.647656   3.873692   2.112212   1.088178
    23  H    4.019099   2.475595   2.257695   2.076098   3.374460
    24  H    4.489328   3.157710   3.496756   2.110349   2.746973
    25  H    4.481523   3.173536   3.514661   2.107920   2.735492
                   11         12         13         14         15
    11  C    0.000000
    12  H    8.653582   0.000000
    13  H    7.499122   1.789452   0.000000
    14  H    7.725663   1.798748   1.748027   0.000000
    15  H    5.428932   3.928105   3.643401   2.980634   0.000000
    16  H    4.734295   4.255465   3.705768   3.857072   1.767389
    17  H    4.884954   4.131266   2.672982   3.386792   2.916323
    18  H    4.236446   5.859704   4.505694   4.438950   3.552462
    19  H    4.133899   5.501301   4.597411   4.104254   2.212450
    20  H    2.774330   8.568811   7.682587   7.276472   4.822645
    21  H    2.705215   9.070525   7.890336   7.695778   5.713003
    22  H    3.400827   7.570087   6.529573   6.101563   4.208084
    23  H    1.088558   8.367034   7.191474   7.636463   5.458769
    24  H    1.097715   9.491158   8.223561   8.488040   6.353417
    25  H    1.097428   9.107642   8.117459   8.205018   5.639898
                   16         17         18         19         20
    16  H    0.000000
    17  H    2.385553   0.000000
    18  H    3.883313   2.520763   0.000000
    19  H    2.971188   2.855559   1.760204   0.000000
    20  H    5.064177   5.464475   3.945902   3.203205   0.000000
    21  H    5.827731   5.505482   3.585309   3.689715   1.774585
    22  H    4.710838   4.444030   2.405842   2.096680   1.772802
    23  H    4.436137   4.588260   4.497532   4.479341   3.738295
    24  H    5.727620   5.566817   4.627765   4.823859   3.175071
    25  H    5.011139   5.602570   4.978821   4.527229   2.594084
                   21         22         23         24         25
    21  H    0.000000
    22  H    1.767143   0.000000
    23  H    3.692872   4.181805   0.000000
    24  H    2.530415   3.717506   1.785409   0.000000
    25  H    3.057742   3.745915   1.786699   1.779346   0.000000
 Stoichiometry    C7H14N2O2
 Framework group  C1[X(C7H14N2O2)]
 Deg. of freedom    69
 Full point group                 C1      NOp   1
 Largest Abelian subgroup         C1      NOp   1
 Largest concise Abelian subgroup C1      NOp   1
                         Standard orientation:                         
 ---------------------------------------------------------------------
 Center     Atomic      Atomic             Coordinates (Angstroms)
 Number     Number       Type             X           Y           Z
 ---------------------------------------------------------------------
      1          6           0       -3.817045    0.738134   -0.482989
      2          6           0       -3.059142   -0.286708    0.335623
      3          8           0       -3.616867   -1.210599    0.897379
      4          6           0       -1.546111   -0.106563    0.492631
      5          7           0       -0.936311    0.678589   -0.581173
      6          6           0        0.437833    1.068395   -0.310899
      7          6           0        1.427619   -0.112267   -0.452067
      8          8           0        1.061271   -1.133237   -1.031562
      9          7           0        2.662761   -0.004560    0.130597
     10          6           0        3.159186    1.166548    0.833969
     11          6           0        3.591650   -1.123995    0.042161
     12          1           0       -4.887700    0.546807   -0.397747
     13          1           0       -3.512438    0.688452   -1.533849
     14          1           0       -3.576128    1.752216   -0.148227
     15          1           0       -1.415040    0.446097    1.435420
     16          1           0       -1.104572   -1.101836    0.640954
     17          1           0       -0.909468    0.092443   -1.414890
     18          1           0        0.788457    1.895256   -0.944607
     19          1           0        0.423989    1.444848    0.717505
     20          1           0        3.361430    0.933992    1.888399
     21          1           0        4.097688    1.511818    0.380688
     22          1           0        2.447401    1.988739    0.795290
     23          1           0        3.102182   -1.935080   -0.494050
     24          1           0        4.502877   -0.827949   -0.493561
     25          1           0        3.877011   -1.464583    1.045614
 ---------------------------------------------------------------------
 Rotational constants (GHZ):      2.5779897      0.4364306      0.4149695
 Standard basis: 6-31G(d,p) (6D, 7F)
 There are   235 symmetry adapted basis functions of A   symmetry.
 Integral buffers will be    131072 words long.
 Raffenetti 2 integral format.
 Two-electron integral symmetry is turned on.
   235 basis functions,   406 primitive gaussians,   235 cartesian basis functions
    43 alpha electrons       43 beta electrons
       nuclear repulsion energy       628.0713079594 Hartrees.
 NAtoms=   25 NActive=   25 NUniq=   25 SFac= 1.00D+00 NAtFMM=   60 NAOKFM=F Big=F
 One-electron integrals computed using PRISM.
 NBasis=   235 RedAO= T  NBF=   235
 NBsUse=   235 1.00D-06 NBFU=   235
 Initial guess read from the read-write file.
 B after Tr=     0.000000    0.000000    0.000000
         Rot=    1.000000    0.000000    0.000000    0.000000 Ang=   0.00 deg.
 Initial guess orbital symmetries:
       Occupied  (A) (A) (A) (A) (A) (A) (A) (A) (A) (A) (A) (A)
                 (A) (A) (A) (A) (A) (A) (A) (A) (A) (A) (A) (A)
                 (A) (A) (A) (A) (A) (A) (A) (A) (A) (A) (A) (A)
[...]
    R6        2.89638  -0.00001  -0.00002  -0.00006  -0.00008   2.89631
    R7        2.75957  -0.00001  -0.00007   0.00002  -0.00005   2.75951
    R8        2.08026   0.00000  -0.00001   0.00001   0.00000   2.08026
    R9        2.08058   0.00000   0.00003   0.00000   0.00003   2.08061
   R10        2.76361  -0.00001  -0.00001   0.00004   0.00003   2.76364
   R11        1.92665   0.00000   0.00000   0.00000   0.00000   1.92665
   R12        2.91518  -0.00001  -0.00009   0.00003  -0.00006   2.91512
   R13        2.06963  -0.00001   0.00001  -0.00002  -0.00001   2.06962
   R14        2.06281   0.00000   0.00001  -0.00001   0.00000   2.06281
   R15        2.32706   0.00000  -0.00003   0.00002  -0.00001   2.32705
   R16        2.59213   0.00005   0.00009   0.00001   0.00009   2.59222
   R17        2.74817   0.00002   0.00002   0.00001   0.00003   2.74820
   R18        2.75809  -0.00002  -0.00009   0.00004  -0.00005   2.75804
   R19        2.07299   0.00000  -0.00005   0.00001  -0.00004   2.07295
   R20        2.07531  -0.00001   0.00005  -0.00002   0.00003   2.07534
   R21        2.05396  -0.00001   0.00001  -0.00001   0.00000   2.05396
   R22        2.05586   0.00000  -0.00003   0.00002  -0.00001   2.05585
   R23        2.07429   0.00000   0.00005  -0.00002   0.00003   2.07432
   R24        2.07113   0.00000  -0.00002   0.00001  -0.00001   2.07112
    A1        1.90800  -0.00001  -0.00005  -0.00003  -0.00009   1.90791
    A2        1.92534   0.00002   0.00014   0.00005   0.00019   1.92553
    A3        1.93062   0.00000  -0.00003   0.00000  -0.00003   1.93059
    A4        1.91779  -0.00001   0.00001  -0.00005  -0.00004   1.91775
    A5        1.93286   0.00000  -0.00002   0.00004   0.00002   1.93288
    A6        1.84875  -0.00001  -0.00005   0.00001  -0.00004   1.84871
    A7        2.13719  -0.00001  -0.00007   0.00000  -0.00007   2.13711
    A8        2.05669   0.00004   0.00018   0.00010   0.00028   2.05697
    A9        2.08862  -0.00002  -0.00011  -0.00010  -0.00020   2.08841
   A10        1.98039   0.00001   0.00014   0.00012   0.00026   1.98064
   A11        1.84139  -0.00001   0.00000  -0.00009  -0.00009   1.84130
   A12        1.87133   0.00000   0.00000   0.00001   0.00001   1.87134
   A13        1.88358   0.00000   0.00000   0.00008   0.00008   1.88366
   A14        2.01456   0.00000   0.00004  -0.00008  -0.00004   2.01452
   A15        1.86142  -0.00001  -0.00021  -0.00005  -0.00025   1.86117
   A16        1.98993  -0.00005  -0.00019  -0.00003  -0.00022   1.98972
   A17        1.90173   0.00002   0.00012   0.00001   0.00013   1.90186
   A18        1.85458   0.00001  -0.00003   0.00003   0.00000   1.85458
   A19        1.94385   0.00003  -0.00006  -0.00003  -0.00009   1.94376
   A20        1.89134  -0.00099  -0.00012  -0.00002  -0.00013   1.89120
   A21        1.88725   0.00087   0.00003  -0.00002   0.00001   1.88726
   A22        1.85683  -0.00009  -0.00009  -0.00002  -0.00011   1.85672
   A23        2.00597   0.00007   0.00019   0.00009   0.00028   2.00625
   A24        1.87439   0.00000   0.00003  -0.00001   0.00001   1.87441
   A25        2.03653  -0.00007  -0.00008  -0.00006  -0.00014   2.03639
   A26        2.11633   0.00005   0.00001   0.00009   0.00010   2.11643
   A27        2.12752   0.00009   0.00008  -0.00003   0.00005   2.12756
   A28        2.21133   0.00003   0.00000  -0.00002  -0.00002   2.21131
   A29        2.06567   0.00000  -0.00009   0.00004  -0.00005   2.06562
   A30        1.99867  -0.00002  -0.00017   0.00007  -0.00011   1.99856
   A31        1.92424   0.00000  -0.00042  -0.00002  -0.00044   1.92380
   A32        1.92922   0.00000   0.00045  -0.00003   0.00042   1.92964
   A33        1.95245   0.00000   0.00003   0.00000   0.00003   1.95249
   A34        1.88130   0.00000  -0.00004   0.00001  -0.00002   1.88127
   A35        1.88904  -0.00001  -0.00028  -0.00001  -0.00028   1.88875
   A36        1.88549   0.00000   0.00024   0.00005   0.00029   1.88578
   A37        1.89423  -0.00001  -0.00006   0.00005  -0.00002   1.89421
   A38        1.93399   0.00000   0.00008  -0.00003   0.00005   1.93404
   A39        1.91745   0.00001   0.00006  -0.00003   0.00003   1.91748
   A40        1.90867   0.00000  -0.00006   0.00004  -0.00003   1.90865
   A41        1.91875   0.00000   0.00003  -0.00002   0.00000   1.91875
   A42        1.89083   0.00000  -0.00004   0.00000  -0.00004   1.89080
    D1        0.09328   0.00000  -0.00070  -0.00007  -0.00077   0.09250
    D2       -3.00813   0.00000  -0.00069   0.00003  -0.00066  -3.00879
    D3       -2.01742   0.00000  -0.00077  -0.00001  -0.00079  -2.01820
    D4        1.16436   0.00000  -0.00076   0.00009  -0.00068   1.16369
    D5        2.22611   0.00000  -0.00078  -0.00005  -0.00083   2.22528
    D6       -0.87529   0.00000  -0.00077   0.00005  -0.00072  -0.87601
    D7       -0.47750   0.00000   0.00200   0.00076   0.00276  -0.47474
    D8        1.58094   0.00001   0.00207   0.00087   0.00294   1.58388
    D9       -2.72288   0.00000   0.00184   0.00077   0.00261  -2.72027
   D10        2.70312   0.00000   0.00201   0.00086   0.00287   2.70598
   D11       -1.52162   0.00001   0.00208   0.00096   0.00304  -1.51858
   D12        0.45774   0.00000   0.00185   0.00087   0.00272   0.46046
   D13        2.95687   0.00000   0.00027   0.00023   0.00050   2.95737
   D14       -1.25807   0.00000   0.00020   0.00026   0.00045  -1.25762
   D15        0.92304   0.00000   0.00019   0.00022   0.00041   0.92345
   D16        2.99128   0.00000   0.00012   0.00025   0.00037   2.99164
   D17       -1.15664   0.00001   0.00043   0.00027   0.00070  -1.15593
   D18        0.91160   0.00001   0.00036   0.00030   0.00066   0.91226
   D19        1.20730   0.00048  -0.00008  -0.00022  -0.00031   1.20699
   D20       -3.03924  -0.00021  -0.00030  -0.00027  -0.00057  -3.03981
   D21       -1.01266  -0.00027  -0.00031  -0.00030  -0.00061  -1.01328
   D22       -0.88765   0.00048  -0.00010  -0.00024  -0.00034  -0.88799
   D23        1.14900  -0.00022  -0.00031  -0.00028  -0.00060   1.14840
   D24       -3.10761  -0.00027  -0.00033  -0.00032  -0.00065  -3.10825
   D25        0.94245  -0.00121   0.00002   0.00005   0.00007   0.94253
   D26       -2.12012  -0.00225   0.00000   0.00000   0.00000  -2.12012
   D27       -1.11512   0.00002   0.00025   0.00009   0.00034  -1.11478
   D28        2.10549  -0.00102   0.00023   0.00004   0.00027   2.10576
   D29        3.09619   0.00004   0.00017   0.00007   0.00023   3.09643
   D30        0.03362  -0.00100   0.00014   0.00002   0.00016   0.03378
   D31       -0.18825   0.00054  -0.00093   0.00059  -0.00034  -0.18859
   D32        3.09252   0.00054   0.00156  -0.00023   0.00133   3.09385
   D33        3.03651  -0.00054  -0.00095   0.00054  -0.00040   3.03611
   D34        0.03410  -0.00054   0.00155  -0.00029   0.00126   0.03536
   D35        2.21243   0.00000   0.00675  -0.00074   0.00601   2.21844
   D36       -1.99248   0.00000   0.00673  -0.00076   0.00597  -1.98651
   D37        0.10943   0.00001   0.00736  -0.00071   0.00665   0.11608
   D38       -1.06375   0.00000   0.00435   0.00006   0.00441  -1.05934
   D39        1.01452   0.00000   0.00432   0.00004   0.00437   1.01888
   D40        3.11643   0.00001   0.00496   0.00009   0.00504   3.12147
   D41       -0.16632   0.00000  -0.00184   0.00099  -0.00085  -0.16717
   D42        1.92969   0.00000  -0.00191   0.00105  -0.00086   1.92883
   D43       -2.26471   0.00000  -0.00186   0.00101  -0.00085  -2.26557
   D44        3.09783   0.00000   0.00034   0.00027   0.00061   3.09844
   D45       -1.08934   0.00000   0.00027   0.00032   0.00060  -1.08874
   D46        0.99944   0.00000   0.00032   0.00029   0.00060   1.00005
         Item               Value     Threshold  Converged?
 Maximum Force            0.000049     0.000450     YES
 RMS     Force            0.000013     0.000300     YES
 Maximum Displacement     0.011198     0.001800     NO 
 RMS     Displacement     0.002425     0.001200     NO 
 Predicted change in Energy=-8.783707D-08
 GradGradGradGradGradGradGradGradGradGradGradGradGradGradGradGradGradGrad

                          Input orientation:                          
 ---------------------------------------------------------------------
 Center     Atomic      Atomic             Coordinates (Angstroms)
 Number     Number       Type             X           Y           Z
 ---------------------------------------------------------------------
      1          6           0       -3.693977   -0.631531    0.216666
      2          6           0       -2.727438    0.230131   -0.567667
      3          8           0       -3.100115    1.114020   -1.315405
      4          6           0       -1.230723   -0.073979   -0.439574
      5          7           0       -0.869694   -0.693919    0.832323
      6          6           0        0.498063   -1.209808    0.875627
      7          6           0        1.531365   -0.064437    0.866970
      8          8           0        1.402564    0.802887    1.731585
      9          7           0        2.484073    0.027424   -0.115675
     10          6           0        2.809012   -0.984393   -1.108442
     11          6           0        3.391710    1.170200   -0.096382
     12          1           0       -4.715535   -0.387217   -0.077440
     13          1           0       -3.566003   -0.465066    1.291377
     14          1           0       -3.486002   -1.693383    0.050362
     15          1           0       -1.006870   -0.792960   -1.242552
     16          1           0       -0.687823    0.851879   -0.685076
     17          1           0       -0.934766    0.004863    1.571867
     18          1           0        0.635818   -1.742950    1.822324
     19          1           0        0.611845   -1.938697    0.071049
     20          1           0        2.771177   -0.552815   -2.116223
     21          1           0        3.824108   -1.371174   -0.946979
     22          1           0        2.119185   -1.823548   -1.072045
     23          1           0        3.035779    1.881939    0.645433
     24          1           0        4.410812    0.854534    0.161876
     25          1           0        3.417164    1.642277   -1.085161
 ---------------------------------------------------------------------
                    Distance matrix (angstroms):
                    1          2          3          4          5
     1  C    0.000000
     2  C    1.513882   0.000000
     3  O    2.397262   1.216249   0.000000
     4  C    2.609432   1.532659   2.381816   0.000000
     5  N    2.891280   2.503009   3.585549   1.460271   0.000000
     6  C    4.282737   3.815806   4.811204   2.451237   1.462456
     7  C    5.296102   4.503594   5.253773   3.055533   2.482445
     8  O    5.507019   4.761462   5.445647   3.523780   2.865703
     9  N    6.221975   5.235000   5.814052   3.730268   3.559043
    10  C    6.645998   5.693837   6.274069   4.194722   4.169391
    11  C    7.317869   6.208849   6.605525   4.799235   4.743100
    12  H    1.090765   2.138685   2.529002   3.517552   3.963866
    13  H    1.095030   2.154654   3.083161   2.933032   2.744665
    14  H    1.094733   2.158075   3.145750   2.819360   2.907828
    15  H    3.062013   2.112472   2.832588   1.100825   2.081762
    16  H    3.471398   2.135505   2.507027   1.101011   2.173722
    17  H    3.139237   2.800361   3.775620   2.034626   1.019537
    18  H    4.749791   4.573466   5.653744   3.374259   2.084978
    19  H    4.502221   4.032689   5.001998   2.670761   2.079416
    20  H    6.873630   5.765917   6.155625   4.365277   4.687193
    21  H    7.643478   6.755058   7.365921   5.243233   5.065211
    22  H    6.072440   5.287886   5.994132   3.831826   3.719687
    23  H    7.196596   6.116759   6.487201   4.817250   4.682167
    24  H    8.240085   7.202549   7.659224   5.748982   5.543550
    25  H    7.578476   6.325985   6.542706   4.996517   5.245161
                    6          7          8          9         10
     6  C    0.000000
     7  C    1.542615   0.000000
     8  O    2.366796   1.231422   0.000000
     9  N    2.541192   1.371744   2.276702   0.000000
    10  C    3.054149   2.526055   3.638436   1.454285   0.000000
    11  C    3.870715   2.431720   2.726368   1.459492   2.450730
    12  H    5.363451   6.326125   6.489996   7.211639   7.618293
    13  H    4.152605   5.130672   5.146663   6.231032   6.831519
    14  H    4.097278   5.338005   5.740728   6.215347   6.439929
    15  H    2.631591   3.379862   4.146997   3.758931   3.823033
    16  H    2.844763   2.858895   3.195679   3.326390   3.972278
    17  H    2.003291   2.565831   2.474967   3.812711   4.709411
    18  H    1.095194   2.128875   2.660341   3.210313   3.726603
    19  H    1.091591   2.234246   3.301347   2.721347   2.670100
    20  H    3.814428   3.267276   4.303099   2.102689   1.096957
    21  H    3.796117   3.202287   4.214869   2.107804   1.098222
    22  H    2.607324   2.683241   3.907946   2.115155   1.086907
    23  H    4.006481   2.469964   2.238632   2.079157   3.367991
    24  H    4.481133   3.103688   3.393554   2.115058   2.749750
    25  H    4.527718   3.206233   3.563320   2.101979   2.696255
                   11         12         13         14         15
    11  C    0.000000
    12  H    8.255503   0.000000
    13  H    7.280779   1.789174   0.000000
    14  H    7.451481   1.798375   1.747937   0.000000
    15  H    4.951283   3.908492   3.616279   2.937429   0.000000
    16  H    4.134063   4.257586   3.731572   3.853445   1.765805
    17  H    4.781157   4.143447   2.687548   3.421670   2.926205
    18  H    4.445539   5.838158   4.423821   4.486837   3.604770
    19  H    4.173838   5.550687   4.595129   4.105236   2.378760
    20  H    2.726463   7.761116   7.195783   6.719173   3.885178
    21  H    2.714602   8.640010   7.774639   7.384864   4.874427
    22  H    3.396140   7.054479   6.304966   5.717942   3.295967
    23  H    1.087910   8.108914   7.036278   7.461278   5.202171
    24  H    1.097684   9.213546   8.163743   8.298433   5.834203
    25  H    1.095988   8.442461   7.671601   7.750468   5.052448
                   16         17         18         19         20
    16  H    0.000000
    17  H    2.423263   0.000000
    18  H    3.843464   2.363116   0.000000
    19  H    3.169886   2.902049   1.762343   0.000000
    20  H    3.998254   5.258044   4.635551   3.371579   0.000000
    21  H    5.036674   5.557423   4.239392   3.417176   1.773558
    22  H    3.897044   4.433957   3.253343   1.895256   1.769227
    23  H    4.086134   4.488533   4.503855   4.560990   3.691177
    24  H    5.168502   5.593319   4.873868   4.716199   3.139868
    25  H    4.199491   5.355392   5.258243   4.693614   2.509745
                   21         22         23         24         25
    21  H    0.000000
    22  H    1.768346   0.000000
    23  H    3.706748   4.185751   0.000000
    24  H    2.554908   3.734466   1.783284   0.000000
    25  H    3.043942   3.700928   1.788252   1.778476   0.000000
 Stoichiometry    C7H14N2O2
 Framework group  C1[X(C7H14N2O2)]
 Deg. of freedom    69
 Full point group                 C1      NOp   1
 Largest Abelian subgroup         C1      NOp   1
 Largest concise Abelian subgroup C1      NOp   1
                         Standard orientation:                         
 ---------------------------------------------------------------------
 Center     Atomic      Atomic             Coordinates (Angstroms)
 Number     Number       Type             X           Y           Z
 ---------------------------------------------------------------------
      1          6           0       -3.780403    0.551225    0.275022
      2          6           0       -2.840039   -0.568738   -0.116434
      3          8           0       -3.233452   -1.609244   -0.608200
      4          6           0       -1.346557   -0.384405    0.174389
      5          7           0       -0.927361    1.014136    0.201726
      6          6           0        0.427101    1.219291    0.713703
      7          6           0        1.486744    0.671957   -0.264685
      8          8           0        1.430829    1.080008   -1.425188
      9          7           0        2.382214   -0.292456    0.122257
     10          6           0        2.622698   -0.761505    1.477655
     11          6           0        3.318022   -0.808235   -0.871901
     12          1           0       -4.810944    0.223417    0.132559
     13          1           0       -3.585467    1.441305   -0.332309
     14          1           0       -3.609449    0.852823    1.313412
     15          1           0       -1.188420   -0.805218    1.179240
     16          1           0       -0.795752   -1.029311   -0.527705
     17          1           0       -0.931272    1.379934   -0.749921
     18          1           0        0.606604    2.296809    0.792348
     19          1           0        0.475047    0.805945    1.722869
     20          1           0        2.536762   -1.854205    1.521670
     21          1           0        3.635412   -0.491122    1.805367
     22          1           0        1.915197   -0.336261    2.184745
     23          1           0        3.024308   -0.433814   -1.850210
     24          1           0        4.342206   -0.481686   -0.649813
     25          1           0        3.297384   -1.904026   -0.869521
 ---------------------------------------------------------------------
 Rotational constants (GHZ):      2.0359768      0.4828922      0.4662976
 Standard basis: 6-31G(d,p) (6D, 7F)
 There are   235 symmetry adapted basis functions of A   symmetry.
 Integral buffers will be    131072 words long.
 Raffenetti 2 integral format.
 Two-electron integral symmetry is turned on.
   235 basis functions,   406 primitive gaussians,   235 cartesian basis functions
    43 alpha electrons       43 beta electrons
       nuclear repulsion energy       632.8196028617 Hartrees.
 NAtoms=   25 NActive=   25 NUniq=   25 SFac= 1.00D+00 NAtFMM=   60 NAOKFM=F Big=F
 One-electron integrals computed using PRISM.
 NBasis=   235 RedAO= T  NBF=   235
 NBsUse=   235 1.00D-06 NBFU=   235
 Initial guess read from the read-write file.
 B after Tr=     0.000000    0.000000    0.000000
         Rot=    1.000000    0.000000    0.000000    0.000000 Ang=   0.00 deg.
 Initial guess orbital symmetries:
       Occupied  (A) (A) (A) (A) (A) (A) (A) (A) (A) (A) (A) (A)
                 (A) (A) (A) (A) (A) (A) (A) (A) (A) (A) (A) (A)
                 (A) (A) (A) (A) (A) (A) (A) (A) (A) (A) (A) (A)
                 (A) (A) (A) (A) (A) (A) (A)
       Virtual   (A) (A) (A) (A) (A) (A) (A) (A) (A) (A) (A) (A)
                 (A) (A) (A) (A) (A) (A) (A) (A) (A) (A) (A) (A)
                 (A) (A) (A) (A) (A) (A) (A) (A) (A) (A) (A) (A)
                 (A) (A) (A) (A) (A) (A) (A) (A) (A) (A) (A) (A)
                 (A) (A) (A) (A) (A) (A) (A) (A) (A) (A) (A) (A)
                 (A) (A) (A) (A) (A) (A) (A) (A) (A) (A) (A) (A)
                 (A) (A) (A) (A) (A) (A) (A) (A) (A) (A) (A) (A)
                 (A) (A) (A) (A) (A) (A) (A) (A) (A) (A) (A) (A)
                 (A) (A) (A) (A) (A) (A) (A) (A) (A) (A) (A) (A)
                 (A) (A) (A) (A) (A) (A) (A) (A) (A) (A) (A) (A)
                 (A) (A) (A) (A) (A) (A) (A) (A) (A) (A) (A) (A)
                 (A) (A) (A) (A) (A) (A) (A) (A) (A) (A) (A) (A)
                 (A) (A) (A) (A) (A) (A) (A) (A) (A) (A) (A) (A)
                 (A) (A) (A) (A) (A) (A) (A) (A) (A) (A) (A) (A)
                 (A) (A) (A) (A) (A) (A) (A) (A) (A) (A) (A) (A)
                 (A) (A) (A) (A) (A) (A) (A) (A) (A) (A) (A) (A)
 Requested convergence on RMS density matrix=1.00D-08 within 128 cycles.
 Requested convergence on MAX density matrix=1.00D-06.
 Requested convergence on             energy=1.00D-06.
 No special actions if energy rises.
 Keep R1 ints in memory in canonical form, NReq=391462532.
