 Entering Gaussian System, Link 0=/data/opt/apps/g09-C01/g09
 Initial command:
 /data/opt/apps/g09-C01/l1.exe /tmp/g09-tuu61186-152863653d2e86c1cx/Gau-1528669.inp -scrdir=/tmp/g09-tuu61186-152863653d2e86c1cx/
 Entering Link 1 = /data/opt/apps/g09-C01/l1.exe PID=   1528671.
  
 Copyright (c) 1988,1990,1992,1993,1995,1998,2003,2009,2011,
            Gaussian, Inc.  All Rights Reserved.
  
 This is part of the Gaussian(R) 09 program.  It is based on
 the Gaussian(R) 03 system (copyright 2003, Gaussian, Inc.),
 the Gaussian(R) 98 system (copyright 1998, Gaussian, Inc.),
 the Gaussian(R) 94 system (copyright 1995, Gaussian, Inc.),
 the Gaussian 92(TM) system (copyright 1992, Gaussian, Inc.),
 the Gaussian 90(TM) system (copyright 1990, Gaussian, Inc.),
 the Gaussian 88(TM) system (copyright 1988, Gaussian, Inc.),
 the Gaussian 86(TM) system (copyright 1986, Carnegie Mellon
 University), and the Gaussian 82(TM) system (copyright 1983,
 Carnegie Mellon University). Gaussian is a federally registered
 trademark of Gaussian, Inc.
  
 This software contains proprietary and confidential information,
 including trade secrets, belonging to Gaussian, Inc.
  
 This software is provided under written license and may be
 used, copied, transmitted, or stored only in accord with that
 written license.
  
 The following legend is applicable only to US Government
 contracts under FAR:
  
                    RESTRICTED RIGHTS LEGEND
  
 Use, reproduction and disclosure by the US Government is
 subject to restrictions as set forth in subparagraphs (a)
 and (c) of the Commercial Computer Software - Restricted
 Rights clause in FAR 52.227-19.
  
 Gaussian, Inc.
 340 Quinnipiac St., Bldg. 40, Wallingford CT 06492
  
  
 ---------------------------------------------------------------
 Warning -- This program may not be used in any manner that
 competes with the business of Gaussian, Inc. or will provide
 assistance to any competitor of Gaussian, Inc.  The licensee
 of this program is prohibited from giving any competitor of
 Gaussian, Inc. access to this program.  By using this program,
 the user acknowledges that Gaussian, Inc. is engaged in the
 business of creating and licensing software in the field of
 computational chemistry and represents and warrants to the
 licensee that it is not a competitor of Gaussian, Inc. and that
 it will not use this program in any manner prohibited above.
 ---------------------------------------------------------------
  

 Cite this work as:
 Gaussian 09, Revision C.01,
 M. J. Frisch, G. W. Trucks, H. B. Schlegel, G. E. Scuseria, 
 M. A. Robb, J. R. Cheeseman, G. Scalmani, V. Barone, B. Mennucci, 
 G. A. Petersson, H. Nakatsuji, M. Caricato, X. Li, H. P. Hratchian, 
 A. F. Izmaylov, J. Bloino, G. Zheng, J. L. Sonnenberg, M. Hada, 
 M. Ehara, K. Toyota, R. Fukuda, J. Hasegawa, M. Ishida, T. Nakajima, 
 Y. Honda, O. Kitao, H. Nakai, T. Vreven, J. A. Montgomery, Jr., 
 J. E. Peralta, F. Ogliaro, M. Bearpark, J. J. Heyd, E. Brothers, 
 K. N. Kudin, V. N. Staroverov, T. Keith, R. Kobayashi, J. Normand, 
 K. Raghavachari, A. Rendell, J. C. Burant, S. S. Iyengar, J. Tomasi, 
 M. Cossi, N. Rega, J. M. Millam, M. Klene, J. E. Knox, J. B. Cross, 
 V. Bakken, C. Adamo, J. Jaramillo, R. Gomperts, R. E. Stratmann, 
 O. Yazyev, A. J. Austin, R. Cammi, C. Pomelli, J. W. Ochterski, 
 R. L. Martin, K. Morokuma, V. G. Zakrzewski, G. A. Voth, 
 P. Salvador, J. J. Dannenberg, S. Dapprich, A. D. Daniels, 
 O. Farkas, J. B. Foresman, J. V. Ortiz, J. Cioslowski, 
 and D. J. Fox, Gaussian, Inc., Wallingford CT, 2010.
 
 ******************************************
 Gaussian 09:  EM64L-G09RevC.01 23-Sep-2011
                16-Apr-2026 
 ******************************************
 %nprocshared=8
 Will use up to    8 processors via shared memory.
 %mem=16GB
 -----------------------------------
 # opt=modredundant b3lyp/6-31g(d,p)
 -----------------------------------
 1/14=-1,18=120,19=15,26=3,38=1/1,3;
 2/9=110,12=2,17=6,18=5,40=1/2;
 3/5=1,6=6,7=101,11=2,16=1,25=1,30=1,71=1,74=-5/1,2,3;
 4//1;
 5/5=2,38=5/2;
 6/7=2,8=2,9=2,10=2,28=1/1;
 7//1,2,3,16;
 1/14=-1,18=20,19=15/3(2);
 2/9=110/2;
 99//99;
 2/9=110/2;
 3/5=1,6=6,7=101,11=2,16=1,25=1,30=1,71=1,74=-5/1,2,3;
 4/5=5,16=3/1;
 5/5=2,38=5/2;
 7//1,2,3,16;
 1/14=-1,18=20,19=15/3(-5);
 2/9=110/2;
 6/7=2,8=2,9=2,10=2,19=2,28=1/1;
 99/9=1/99;
 ---------------
 QM dihedral opt
 ---------------
 Charge =  0 Multiplicity = 1
 Symbolic Z-Matrix:
 C                    -3.8106   -0.76813   0.56473 
 C                    -3.10996   0.26     -0.29924 
 O                    -3.70974   1.16608  -0.84616 
 C                    -1.60257   0.10593  -0.52217 
 N                    -0.93044  -0.65378   0.5323 
 C                     0.4372   -1.02141   0.20512 
 C                     1.42237   0.16399   0.33853 
 O                     1.03612   1.20467   0.86782 
 N                     2.70644   0.00186  -0.10855 
 C                     3.24097  -1.21293  -0.7006 
 C                     3.6497    1.10498   0.02105 
 H                    -4.88728  -0.59759   0.52587 
 H                    -3.45991  -0.69964   1.5999 
 H                    -3.56603  -1.78174   0.23129 
 H                    -1.50344  -0.45639  -1.46304 
 H                    -1.18721   1.10719  -0.70215 
 H                    -0.87744  -0.05649   1.35673 
 H                     0.76881  -1.82046   0.88313 
 H                     0.45741  -1.44068  -0.80645 
 H                     3.55477  -1.03775  -1.73818 
 H                     4.11915  -1.55429  -0.13787 
 H                     2.50827  -2.01727  -0.696 
 H                     3.12974   1.95177   0.46492 
 H                     4.49378   0.81755   0.66044 
 H                     4.04361   1.38886  -0.96258 
 
 The following ModRedundant input section has been read:
 D       4       5       6       7 S  36 10.000                                

 GradGradGradGradGradGradGradGradGradGradGradGradGradGradGradGradGradGrad
 Berny optimization.
 Initialization pass.
                           ----------------------------
                           !    Initial Parameters    !
                           ! (Angstroms and Degrees)  !
 --------------------------                            --------------------------
 ! Name  Definition              Value          Derivative Info.                !
 --------------------------------------------------------------------------------
 ! R1    R(1,2)                  1.5147         estimate D2E/DX2                !
 ! R2    R(1,12)                 1.0908         estimate D2E/DX2                !
 ! R3    R(1,13)                 1.0951         estimate D2E/DX2                !
 ! R4    R(1,14)                 1.0947         estimate D2E/DX2                !
 ! R5    R(2,3)                  1.2165         estimate D2E/DX2                !
 ! R6    R(2,4)                  1.5316         estimate D2E/DX2                !
 ! R7    R(4,5)                  1.4632         estimate D2E/DX2                !
 ! R8    R(4,15)                 1.1006         estimate D2E/DX2                !
 ! R9    R(4,16)                 1.0988         estimate D2E/DX2                !
 ! R10   R(5,6)                  1.4535         estimate D2E/DX2                !
 ! R11   R(5,17)                 1.0194         estimate D2E/DX2                !
 ! R12   R(6,7)                  1.5471         estimate D2E/DX2                !
 ! R13   R(6,18)                 1.0992         estimate D2E/DX2                !
 ! R14   R(6,19)                 1.0952         estimate D2E/DX2                !
 ! R15   R(7,8)                  1.2298         estimate D2E/DX2                !
 ! R16   R(7,9)                  1.3693         estimate D2E/DX2                !
 ! R17   R(9,10)                 1.4533         estimate D2E/DX2                !
 ! R18   R(9,11)                 1.4572         estimate D2E/DX2                !
 ! R19   R(10,20)                1.0981         estimate D2E/DX2                !
 ! R20   R(10,21)                1.0974         estimate D2E/DX2                !
 ! R21   R(10,22)                1.088          estimate D2E/DX2                !
 ! R22   R(11,23)                1.0883         estimate D2E/DX2                !
 ! R23   R(11,24)                1.0972         estimate D2E/DX2                !
 ! R24   R(11,25)                1.0969         estimate D2E/DX2                !
 ! A1    A(2,1,12)             109.2765         estimate D2E/DX2                !
 ! A2    A(2,1,13)             110.4007         estimate D2E/DX2                !
 ! A3    A(2,1,14)             110.5725         estimate D2E/DX2                !
 ! A4    A(12,1,13)            109.876          estimate D2E/DX2                !
 ! A5    A(12,1,14)            110.759          estimate D2E/DX2                !
 ! A6    A(13,1,14)            105.9197         estimate D2E/DX2                !
 ! A7    A(1,2,3)              122.2716         estimate D2E/DX2                !
 ! A8    A(1,2,4)              118.0343         estimate D2E/DX2                !
 ! A9    A(3,2,4)              119.6535         estimate D2E/DX2                !
 ! A10   A(2,4,5)              113.5442         estimate D2E/DX2                !
 ! A11   A(2,4,15)             105.3361         estimate D2E/DX2                !
 ! A12   A(2,4,16)             107.7107         estimate D2E/DX2                !
 ! A13   A(5,4,15)             108.0256         estimate D2E/DX2                !
 ! A14   A(5,4,16)             114.6784         estimate D2E/DX2                !
 ! A15   A(15,4,16)            106.9468         estimate D2E/DX2                !
 ! A16   A(4,5,6)              113.6618         estimate D2E/DX2                !
 ! A17   A(4,5,17)             107.6073         estimate D2E/DX2                !
 ! A18   A(6,5,17)             106.3394         estimate D2E/DX2                !
 ! A19   A(5,6,7)              112.7036         estimate D2E/DX2                !
 ! A20   A(5,6,18)             109.2018         estimate D2E/DX2                !
 ! A21   A(5,6,19)             108.7908         estimate D2E/DX2                !
 ! A22   A(7,6,18)             108.1611         estimate D2E/DX2                !
 ! A23   A(7,6,19)             111.1746         estimate D2E/DX2                !
 ! A24   A(18,6,19)            106.6112         estimate D2E/DX2                !
 ! A25   A(6,7,8)              119.045          estimate D2E/DX2                !
 ! A26   A(6,7,9)              118.5727         estimate D2E/DX2                !
 ! A27   A(8,7,9)              122.361          estimate D2E/DX2                !
 ! A28   A(7,9,10)             125.2331         estimate D2E/DX2                !
 ! A29   A(7,9,11)             119.2323         estimate D2E/DX2                !
 ! A30   A(10,9,11)            115.5271         estimate D2E/DX2                !
 ! A31   A(9,10,20)            110.8981         estimate D2E/DX2                !
 ! A32   A(9,10,21)            110.2082         estimate D2E/DX2                !
 ! A33   A(9,10,22)            111.625          estimate D2E/DX2                !
 ! A34   A(20,10,21)           107.7868         estimate D2E/DX2                !
 ! A35   A(20,10,22)           108.3235         estimate D2E/DX2                !
 ! A36   A(21,10,22)           107.8638         estimate D2E/DX2                !
 ! A37   A(9,11,23)            108.4222         estimate D2E/DX2                !
 ! A38   A(9,11,24)            110.5785         estimate D2E/DX2                !
 ! A39   A(9,11,25)            110.4022         estimate D2E/DX2                !
 ! A40   A(23,11,24)           109.4933         estimate D2E/DX2                !
 ! A41   A(23,11,25)           109.6289         estimate D2E/DX2                !
 ! A42   A(24,11,25)           108.3056         estimate D2E/DX2                !
 ! D1    D(12,1,2,3)             4.7315         estimate D2E/DX2                !
 ! D2    D(12,1,2,4)          -172.9428         estimate D2E/DX2                !
 ! D3    D(13,1,2,3)          -116.2226         estimate D2E/DX2                !
 ! D4    D(13,1,2,4)            66.1031         estimate D2E/DX2                !
 ! D5    D(14,1,2,3)           126.8946         estimate D2E/DX2                !
 ! D6    D(14,1,2,4)           -50.7797         estimate D2E/DX2                !
 ! D7    D(1,2,4,5)            -24.0834         estimate D2E/DX2                !
 ! D8    D(1,2,4,15)            93.9186         estimate D2E/DX2                !
 ! D9    D(1,2,4,16)          -152.1988         estimate D2E/DX2                !
 ! D10   D(3,2,4,5)            158.1793         estimate D2E/DX2                !
 ! D11   D(3,2,4,15)           -83.8186         estimate D2E/DX2                !
 ! D12   D(3,2,4,16)            30.0639         estimate D2E/DX2                !
 ! D13   D(2,4,5,6)            168.9022         estimate D2E/DX2                !
 ! D14   D(2,4,5,17)           -73.6265         estimate D2E/DX2                !
 ! D15   D(15,4,5,6)            52.4673         estimate D2E/DX2                !
 ! D16   D(15,4,5,17)          169.9386         estimate D2E/DX2                !
 ! D17   D(16,4,5,6)           -66.6674         estimate D2E/DX2                !
 ! D18   D(16,4,5,17)           50.8039         estimate D2E/DX2                !
 ! D19   D(4,5,6,7)             76.4432         Scan                            !
 ! D20   D(4,5,6,18)          -163.3259         estimate D2E/DX2                !
 ! D21   D(4,5,6,19)           -47.333          estimate D2E/DX2                !
 ! D22   D(17,5,6,7)           -41.7609         estimate D2E/DX2                !
 ! D23   D(17,5,6,18)           78.47           estimate D2E/DX2                !
 ! D24   D(17,5,6,19)         -165.5371         estimate D2E/DX2                !
 ! D25   D(5,6,7,8)             10.1643         estimate D2E/DX2                !
 ! D26   D(5,6,7,9)           -171.4739         estimate D2E/DX2                !
 ! D27   D(18,6,7,8)          -110.6634         estimate D2E/DX2                !
 ! D28   D(18,6,7,9)            67.6985         estimate D2E/DX2                !
 ! D29   D(19,6,7,8)           132.6112         estimate D2E/DX2                !
 ! D30   D(19,6,7,9)           -49.027          estimate D2E/DX2                !
 ! D31   D(6,7,9,10)            -0.497          estimate D2E/DX2                !
 ! D32   D(6,7,9,11)          -179.4521         estimate D2E/DX2                !
 ! D33   D(8,7,9,10)           177.8075         estimate D2E/DX2                !
 ! D34   D(8,7,9,11)            -1.1476         estimate D2E/DX2                !
 ! D35   D(7,9,10,20)          117.4558         estimate D2E/DX2                !
 ! D36   D(7,9,10,21)         -123.2706         estimate D2E/DX2                !
 ! D37   D(7,9,10,22)           -3.4325         estimate D2E/DX2                !
 ! D38   D(11,9,10,20)         -63.5547         estimate D2E/DX2                !
 ! D39   D(11,9,10,21)          55.719          estimate D2E/DX2                !
 ! D40   D(11,9,10,22)         175.557          estimate D2E/DX2                !
 ! D41   D(7,9,11,23)           -1.4956         estimate D2E/DX2                !
 ! D42   D(7,9,11,24)          118.5539         estimate D2E/DX2                !
 ! D43   D(7,9,11,25)         -121.6053         estimate D2E/DX2                !
 ! D44   D(10,9,11,23)         179.4502         estimate D2E/DX2                !
 ! D45   D(10,9,11,24)         -60.5002         estimate D2E/DX2                !
 ! D46   D(10,9,11,25)          59.3405         estimate D2E/DX2                !
 --------------------------------------------------------------------------------
 Trust Radius=3.00D-01 FncErr=1.00D-07 GrdErr=1.00D-06
 Number of optimizations in scan=  37
 Number of steps in this run=    122 maximum allowed number of steps=    150.
 GradGradGradGradGradGradGradGradGradGradGradGradGradGradGradGradGradGrad

                          Input orientation:                          
 ---------------------------------------------------------------------
 Center     Atomic      Atomic             Coordinates (Angstroms)
 Number     Number       Type             X           Y           Z
 ---------------------------------------------------------------------
      1          6           0       -3.810604   -0.768134    0.564729
      2          6           0       -3.109957    0.259996   -0.299239
      3          8           0       -3.709744    1.166076   -0.846164
      4          6           0       -1.602565    0.105927   -0.522166
      5          7           0       -0.930435   -0.653780    0.532302
      6          6           0        0.437195   -1.021413    0.205117
      7          6           0        1.422374    0.163987    0.338530
      8          8           0        1.036118    1.204668    0.867818
      9          7           0        2.706443    0.001862   -0.108553
     10          6           0        3.240973   -1.212934   -0.700602
     11          6           0        3.649704    1.104976    0.021050
     12          1           0       -4.887280   -0.597588    0.525870
     13          1           0       -3.459914   -0.699641    1.599900
     14          1           0       -3.566029   -1.781744    0.231285
     15          1           0       -1.503436   -0.456389   -1.463041
     16          1           0       -1.187209    1.107188   -0.702153
     17          1           0       -0.877444   -0.056494    1.356734
     18          1           0        0.768812   -1.820464    0.883132
     19          1           0        0.457414   -1.440677   -0.806445
     20          1           0        3.554767   -1.037753   -1.738184
     21          1           0        4.119150   -1.554290   -0.137867
     22          1           0        2.508265   -2.017274   -0.695996
     23          1           0        3.129735    1.951768    0.464924
     24          1           0        4.493781    0.817546    0.660440
     25          1           0        4.043614    1.388860   -0.962582
 ---------------------------------------------------------------------
                    Distance matrix (angstroms):
                    1          2          3          4          5
     1  C    0.000000
     2  C    1.514727   0.000000
     3  O    2.396239   1.216492   0.000000
     4  C    2.611658   1.531556   2.380986   0.000000
     5  N    2.882621   2.505347   3.596749   1.463153   0.000000
     6  C    4.270511   3.805085   4.804935   2.441405   1.453484
     7  C    5.320157   4.577990   5.361559   3.145540   2.498400
     8  O    5.241615   4.409577   5.046031   3.178354   2.726487
     9  N    6.596825   5.825247   6.562539   4.330064   3.750659
    10  C    7.177997   6.531839   7.348016   5.023056   4.385584
    11  C    7.711052   6.819794   7.410619   5.373966   4.932776
    12  H    1.090792   2.138956   2.525783   3.518901   3.957249
    13  H    1.095104   2.156410   3.086510   2.932891   2.745930
    14  H    1.094718   2.158277   3.141845   2.825983   2.882580
    15  H    3.087403   2.109159   2.807263   1.100578   2.085351
    16  H    3.464682   2.139400   2.527329   1.098836   2.165830
    17  H    3.120438   2.797593   3.790694   2.020506   1.019435
    18  H    4.709547   4.557539   5.653968   3.362926   2.090855
    19  H    4.533035   3.984430   4.915480   2.591585   2.082685
    20  H    7.721709   6.940696   7.643669   5.420773   5.041783
    21  H    7.999543   7.455043   8.318272   5.970095   5.172848
    22  H    6.563374   6.075178   6.987124   4.630024   3.897754
    23  H    7.454940   6.509976   7.008191   5.174567   4.824769
    24  H    8.454960   7.684314   8.348003   6.250631   5.621685
    25  H    8.286980   7.272409   7.757432   5.806825   5.581059
                    6          7          8          9         10
     6  C    0.000000
     7  C    1.547110   0.000000
     8  O    2.398608   1.229779   0.000000
     9  N    2.508977   1.369307   2.278163   0.000000
    10  C    2.952656   2.506593   3.628516   1.453263   0.000000
    11  C    3.856893   2.438699   2.749143   1.457189   2.461818
    12  H    5.350939   6.358209   6.200943   7.643720   8.243263
    13  H    4.151676   5.116018   4.937271   6.436993   7.103356
    14  H    4.074873   5.355514   5.523005   6.529980   6.894000
    15  H    2.620697   3.491545   3.826402   4.446090   4.864472
    16  H    2.827149   2.963541   2.723508   4.090799   4.999176
    17  H    1.996388   2.524780   2.343350   3.872301   4.746719
    18  H    1.099162   2.159116   3.036957   2.838789   2.998147
    19  H    1.095193   2.194781   3.183694   2.761540   2.794865
    20  H    3.673682   3.209988   4.261841   2.110960   1.098058
    21  H    3.736093   3.232960   4.257739   2.101954   1.097447
    22  H    2.468415   2.647131   3.872162   2.112173   1.088046
    23  H    4.019587   2.475322   2.259140   2.076099   3.374339
    24  H    4.477162   3.156629   3.485442   2.109803   2.746782
    25  H    4.492126   3.172397   3.525525   2.107405   2.735361
                   11         12         13         14         15
    11  C    0.000000
    12  H    8.719728   0.000000
    13  H    7.503071   1.789226   0.000000
    14  H    7.774584   1.798530   1.747946   0.000000
    15  H    5.585270   3.927608   3.642607   2.980201   0.000000
    16  H    4.890680   4.254977   3.705303   3.856944   1.767406
    17  H    4.860878   4.130606   2.672437   3.386977   2.915975
    18  H    4.195345   5.797796   4.433072   4.383748   3.539539
    19  H    4.166031   5.572398   4.656725   4.169089   2.290169
    20  H    2.774023   8.751448   7.775788   7.425501   5.098932
    21  H    2.705056   9.081388   7.822562   7.697401   5.880046
    22  H    3.400806   7.629060   6.528894   6.149177   4.372467
    23  H    1.088324   8.412815   7.193164   7.669873   5.566196
    24  H    1.097224   9.488151   8.151424   8.479447   6.488351
    25  H    1.096944   9.269430   8.199456   8.329749   5.867296
                   16         17         18         19         20
    16  H    0.000000
    17  H    2.385189   0.000000
    18  H    3.861385   2.458871   0.000000
    19  H    3.034350   2.894331   1.759511   0.000000
    20  H    5.306644   5.494168   3.904546   3.259460   0.000000
    21  H    5.963164   5.426157   3.512556   3.724005   1.773796
    22  H    4.839300   4.418301   2.357557   2.133226   1.772226
    23  H    4.550977   4.570112   4.469742   4.501818   3.737857
    24  H    5.849291   5.486240   4.569911   4.852173   3.174473
    25  H    5.244871   5.628951   4.942747   4.570721   2.594028
                   21         22         23         24         25
    21  H    0.000000
    22  H    1.766582   0.000000
    23  H    3.692525   4.181776   0.000000
    24  H    2.530464   3.717310   1.784743   0.000000
    25  H    3.057449   3.745679   1.786005   1.778553   0.000000
 Stoichiometry    C7H14N2O2
 Framework group  C1[X(C7H14N2O2)]
 Deg. of freedom    69
 Full point group                 C1      NOp   1
 Largest Abelian subgroup         C1      NOp   1
 Largest concise Abelian subgroup C1      NOp   1
                         Standard orientation:                         
 ---------------------------------------------------------------------
 Center     Atomic      Atomic             Coordinates (Angstroms)
 Number     Number       Type             X           Y           Z
 ---------------------------------------------------------------------
      1          6           0       -3.810604    0.768134   -0.564729
      2          6           0       -3.109957   -0.259996    0.299239
      3          8           0       -3.709744   -1.166076    0.846164
      4          6           0       -1.602565   -0.105927    0.522166
      5          7           0       -0.930435    0.653780   -0.532302
      6          6           0        0.437195    1.021413   -0.205117
      7          6           0        1.422374   -0.163987   -0.338530
      8          8           0        1.036118   -1.204668   -0.867818
      9          7           0        2.706443   -0.001862    0.108553
     10          6           0        3.240973    1.212934    0.700602
     11          6           0        3.649704   -1.104976   -0.021050
     12          1           0       -4.887280    0.597588   -0.525870
     13          1           0       -3.459914    0.699641   -1.599900
     14          1           0       -3.566029    1.781744   -0.231285
     15          1           0       -1.503436    0.456389    1.463041
     16          1           0       -1.187209   -1.107188    0.702153
     17          1           0       -0.877444    0.056494   -1.356734
     18          1           0        0.768812    1.820464   -0.883132
     19          1           0        0.457414    1.440677    0.806445
     20          1           0        3.554767    1.037753    1.738184
     21          1           0        4.119150    1.554290    0.137867
     22          1           0        2.508265    2.017274    0.695996
     23          1           0        3.129735   -1.951768   -0.464924
     24          1           0        4.493781   -0.817546   -0.660440
     25          1           0        4.043614   -1.388860    0.962582
 ---------------------------------------------------------------------
 Rotational constants (GHZ):      2.7142442      0.4282922      0.4038366
 Standard basis: 6-31G(d,p) (6D, 7F)
 There are   235 symmetry adapted basis functions of A   symmetry.
 Integral buffers will be    131072 words long.
 Raffenetti 2 integral format.
 Two-electron integral symmetry is turned on.
   235 basis functions,   406 primitive gaussians,   235 cartesian basis functions
    43 alpha electrons       43 beta electrons
       nuclear repulsion energy       626.7841078165 Hartrees.
 NAtoms=   25 NActive=   25 NUniq=   25 SFac= 1.00D+00 NAtFMM=   60 NAOKFM=F Big=F
 One-electron integrals computed using PRISM.
 NBasis=   235 RedAO= T  NBF=   235
 NBsUse=   235 1.00D-06 NBFU=   235
 Harris functional with IExCor=  402 diagonalized for initial guess.
 ExpMin= 1.61D-01 ExpMax= 5.48D+03 ExpMxC= 8.25D+02 IAcc=1 IRadAn=         1 AccDes= 0.00D+00
 HarFok:  IExCor=  402 AccDes= 0.00D+00 IRadAn=         1 IDoV= 1
 ScaDFX=  1.000000  1.000000  1.000000  1.000000
 FoFCou: FMM=F IPFlag=           0 FMFlag=      100000 FMFlg1=           0
         NFxFlg=           0 DoJE=T BraDBF=F KetDBF=T FulRan=T
         Omega=  0.000000  0.000000  1.000000  0.000000  0.000000 ICntrl=     500 IOpCl=  0
         NMat0=    1 NMatS0=    1 NMatT0=    0 NMatD0=    1 NMtDS0=    0 NMtDT0=    0
         I1Cent=           4 NGrid=           0.
 Petite list used in FoFCou.
 Initial guess orbital symmetries:
       Occupied  (A) (A) (A) (A) (A) (A) (A) (A) (A) (A) (A) (A)
                 (A) (A) (A) (A) (A) (A) (A) (A) (A) (A) (A) (A)
                 (A) (A) (A) (A) (A) (A) (A) (A) (A) (A) (A) (A)
                 (A) (A) (A) (A) (A) (A) (A)
       Virtual   (A) (A) (A) (A) (A) (A) (A) (A) (A) (A) (A) (A)
                 (A) (A) (A) (A) (A) (A) (A) (A) (A) (A) (A) (A)
                 (A) (A) (A) (A) (A) (A) (A) (A) (A) (A) (A) (A)
                 (A) (A) (A) (A) (A) (A) (A) (A) (A) (A) (A) (A)
                 (A) (A) (A) (A) (A) (A) (A) (A) (A) (A) (A) (A)
                 (A) (A) (A) (A) (A) (A) (A) (A) (A) (A) (A) (A)
                 (A) (A) (A) (A) (A) (A) (A) (A) (A) (A) (A) (A)
                 (A) (A) (A) (A) (A) (A) (A) (A) (A) (A) (A) (A)
                 (A) (A) (A) (A) (A) (A) (A) (A) (A) (A) (A) (A)
                 (A) (A) (A) (A) (A) (A) (A) (A) (A) (A) (A) (A)
                 (A) (A) (A) (A) (A) (A) (A) (A) (A) (A) (A) (A)
                 (A) (A) (A) (A) (A) (A) (A) (A) (A) (A) (A) (A)
                 (A) (A) (A) (A) (A) (A) (A) (A) (A) (A) (A) (A)
                 (A) (A) (A) (A) (A) (A) (A) (A) (A) (A) (A) (A)
                 (A) (A) (A) (A) (A) (A) (A) (A) (A) (A) (A) (A)
                 (A) (A) (A) (A) (A) (A) (A) (A) (A) (A) (A) (A)
 The electronic state of the initial guess is 1-A.
 Requested convergence on RMS density matrix=1.00D-08 within 128 cycles.
 Requested convergence on MAX density matrix=1.00D-06.
 Requested convergence on             energy=1.00D-06.
 No special actions if energy rises.
 Keep R1 ints in memory in canonical form, NReq=391462845.
 Integral accuracy reduced to 1.0D-05 until final iterations.
 Initial convergence to 1.0D-05 achieved.  Increase integral accuracy.
 SCF Done:  E(RB3LYP) =  -535.140867434     A.U. after   15 cycles
             Convg  =    0.5175D-08             -V/T =  2.0094

 **********************************************************************

            Population analysis using the SCF density.

 **********************************************************************

 Orbital symmetries:
       Occupied  (A) (A) (A) (A) (A) (A) (A) (A) (A) (A) (A) (A)
                 (A) (A) (A) (A) (A) (A) (A) (A) (A) (A) (A) (A)
                 (A) (A) (A) (A) (A) (A) (A) (A) (A) (A) (A) (A)
                 (A) (A) (A) (A) (A) (A) (A)
       Virtual   (A) (A) (A) (A) (A) (A) (A) (A) (A) (A) (A) (A)
                 (A) (A) (A) (A) (A) (A) (A) (A) (A) (A) (A) (A)
                 (A) (A) (A) (A) (A) (A) (A) (A) (A) (A) (A) (A)
                 (A) (A) (A) (A) (A) (A) (A) (A) (A) (A) (A) (A)
                 (A) (A) (A) (A) (A) (A) (A) (A) (A) (A) (A) (A)
                 (A) (A) (A) (A) (A) (A) (A) (A) (A) (A) (A) (A)
                 (A) (A) (A) (A) (A) (A) (A) (A) (A) (A) (A) (A)
                 (A) (A) (A) (A) (A) (A) (A) (A) (A) (A) (A) (A)
                 (A) (A) (A) (A) (A) (A) (A) (A) (A) (A) (A) (A)
                 (A) (A) (A) (A) (A) (A) (A) (A) (A) (A) (A) (A)
                 (A) (A) (A) (A) (A) (A) (A) (A) (A) (A) (A) (A)
                 (A) (A) (A) (A) (A) (A) (A) (A) (A) (A) (A) (A)
                 (A) (A) (A) (A) (A) (A) (A) (A) (A) (A) (A) (A)
                 (A) (A) (A) (A) (A) (A) (A) (A) (A) (A) (A) (A)
                 (A) (A) (A) (A) (A) (A) (A) (A) (A) (A) (A) (A)
                 (A) (A) (A) (A) (A) (A) (A) (A) (A) (A) (A) (A)
 The electronic state is 1-A.
 Alpha  occ. eigenvalues --  -19.12706 -19.11682 -14.37503 -14.32589 -10.28864
 Alpha  occ. eigenvalues --  -10.26651 -10.23719 -10.22769 -10.21938 -10.20980
 Alpha  occ. eigenvalues --  -10.17839  -1.03740  -1.02762  -0.94089  -0.90999
 Alpha  occ. eigenvalues --   -0.75809  -0.73578  -0.72274  -0.69445  -0.64928
 Alpha  occ. eigenvalues --   -0.55245  -0.53565  -0.51610  -0.49005  -0.48140
 Alpha  occ. eigenvalues --   -0.47683  -0.45213  -0.45054  -0.42557  -0.42017
 Alpha  occ. eigenvalues --   -0.41382  -0.41269  -0.40583  -0.39348  -0.38788
 Alpha  occ. eigenvalues --   -0.38230  -0.36976  -0.35733  -0.33372  -0.26077
 Alpha  occ. eigenvalues --   -0.24757  -0.24109  -0.22817
 Alpha virt. eigenvalues --   -0.00539   0.02149   0.07603   0.09237   0.10834
 Alpha virt. eigenvalues --    0.12519   0.13415   0.13997   0.14300   0.14927
 Alpha virt. eigenvalues --    0.15367   0.16093   0.16330   0.17188   0.17686
 Alpha virt. eigenvalues --    0.18337   0.20788   0.20942   0.22663   0.23964
 Alpha virt. eigenvalues --    0.26202   0.27952   0.30656   0.34240   0.34817
 Alpha virt. eigenvalues --    0.39130   0.48035   0.48982   0.49578   0.53126
 Alpha virt. eigenvalues --    0.54168   0.54261   0.54686   0.56139   0.58775
 Alpha virt. eigenvalues --    0.59002   0.60562   0.62235   0.64747   0.66350
 Alpha virt. eigenvalues --    0.68758   0.69689   0.69950   0.71066   0.73345
 Alpha virt. eigenvalues --    0.74216   0.75985   0.76725   0.77406   0.79332
 Alpha virt. eigenvalues --    0.80642   0.82672   0.84109   0.84937   0.85388
 Alpha virt. eigenvalues --    0.85994   0.86542   0.87586   0.88058   0.89903
 Alpha virt. eigenvalues --    0.90330   0.91154   0.91974   0.93672   0.94790
 Alpha virt. eigenvalues --    0.95470   0.98249   0.99803   1.02563   1.03988
 Alpha virt. eigenvalues --    1.04880   1.09901   1.11541   1.16769   1.18422
 Alpha virt. eigenvalues --    1.24683   1.27838   1.29305   1.31716   1.32662
 Alpha virt. eigenvalues --    1.35407   1.37131   1.38886   1.40007   1.43760
 Alpha virt. eigenvalues --    1.51573   1.54907   1.58499   1.60957   1.64042
 Alpha virt. eigenvalues --    1.68692   1.69588   1.71935   1.72207   1.72804
 Alpha virt. eigenvalues --    1.73777   1.76446   1.78865   1.81419   1.82454
 Alpha virt. eigenvalues --    1.83008   1.86023   1.87793   1.88905   1.91425
 Alpha virt. eigenvalues --    1.93446   1.95018   1.95398   1.96609   1.99785
 Alpha virt. eigenvalues --    2.01179   2.01426   2.02313   2.02621   2.03011
 Alpha virt. eigenvalues --    2.04128   2.05869   2.07109   2.08780   2.10127
 Alpha virt. eigenvalues --    2.11342   2.12170   2.14190   2.14548   2.18468
 Alpha virt. eigenvalues --    2.20508   2.22879   2.26408   2.28607   2.30483
 Alpha virt. eigenvalues --    2.31691   2.35041   2.37580   2.39971   2.40383
 Alpha virt. eigenvalues --    2.41777   2.43635   2.50281   2.52101   2.53076
 Alpha virt. eigenvalues --    2.54968   2.56250   2.58850   2.60898   2.62985
 Alpha virt. eigenvalues --    2.64569   2.65928   2.66645   2.69319   2.71782
 Alpha virt. eigenvalues --    2.73710   2.76304   2.80638   2.81995   2.83076
 Alpha virt. eigenvalues --    2.86312   2.86795   2.88658   2.89152   2.90470
 Alpha virt. eigenvalues --    2.93342   2.94284   2.97586   3.04065   3.05361
 Alpha virt. eigenvalues --    3.10078   3.12574   3.16997   3.23317   3.26831
 Alpha virt. eigenvalues --    3.27221   3.31432   3.35742   3.37725   3.41362
 Alpha virt. eigenvalues --    3.42792   3.43075   3.44325   3.48259   3.49223
 Alpha virt. eigenvalues --    3.52225   3.97296   4.00812   4.10852   4.15390
 Alpha virt. eigenvalues --    4.23566   4.33866   4.48397   4.50981   4.51348
 Alpha virt. eigenvalues --    4.64925   4.67669
          Condensed to atoms (all electrons):
              1          2          3          4          5          6
     1  C    5.150391   0.328088  -0.079953  -0.131260   0.010435   0.000226
     2  C    0.328088   4.542651   0.577125   0.307139  -0.039288   0.002120
     3  O   -0.079953   0.577125   8.006838  -0.077449   0.002165  -0.000059
     4  C   -0.131260   0.307139  -0.077449   5.125497   0.248792  -0.044348
     5  N    0.010435  -0.039288   0.002165   0.248792   6.813121   0.344094
     6  C    0.000226   0.002120  -0.000059  -0.044348   0.344094   5.058124
     7  C    0.000004  -0.000170  -0.000004  -0.001355  -0.051473   0.283520
     8  O    0.000005   0.000012   0.000000  -0.000678  -0.014564  -0.090586
     9  N    0.000000   0.000000   0.000000   0.000061   0.003646  -0.100784
    10  C    0.000000   0.000000   0.000000  -0.000007   0.000267   0.000065
    11  C    0.000000   0.000000   0.000000  -0.000006  -0.000100   0.004689
    12  H    0.356977  -0.024070   0.004499   0.006450   0.000427   0.000005
    13  H    0.360696  -0.016281   0.001342  -0.000344   0.003169   0.000115
    14  H    0.362836  -0.023073   0.001785   0.005275   0.000268  -0.000079
    15  H    0.001452  -0.017721  -0.000311   0.359112  -0.040906  -0.009463
    16  H    0.006917  -0.036942   0.005050   0.355860  -0.042525  -0.002300
    17  H   -0.000362  -0.000569   0.000121  -0.042092   0.340852  -0.054975
    18  H   -0.000006   0.000003   0.000001   0.004898  -0.037017   0.372201
    19  H   -0.000004  -0.000050  -0.000001  -0.008223  -0.035988   0.367056
    20  H    0.000000   0.000000   0.000000   0.000002  -0.000002  -0.000173
    21  H    0.000000   0.000000   0.000000   0.000000  -0.000008  -0.000333
    22  H    0.000000   0.000000   0.000000   0.000000   0.000067   0.006422
    23  H    0.000000   0.000000   0.000000  -0.000001  -0.000006   0.001119
    24  H    0.000000   0.000000   0.000000   0.000000   0.000001  -0.000107
    25  H    0.000000   0.000000   0.000000   0.000000   0.000002  -0.000085
              7          8          9         10         11         12
     1  C    0.000004   0.000005   0.000000   0.000000   0.000000   0.356977
     2  C   -0.000170   0.000012   0.000000   0.000000   0.000000  -0.024070
     3  O   -0.000004   0.000000   0.000000   0.000000   0.000000   0.004499
     4  C   -0.001355  -0.000678   0.000061  -0.000007  -0.000006   0.006450
     5  N   -0.051473  -0.014564   0.003646   0.000267  -0.000100   0.000427
     6  C    0.283520  -0.090586  -0.100784   0.000065   0.004689   0.000005
     7  C    4.519572   0.573345   0.236240  -0.027455  -0.023480   0.000000
     8  O    0.573345   8.104369  -0.095151   0.002698  -0.011767   0.000000
     9  N    0.236240  -0.095151   7.039750   0.301600   0.286783   0.000000
    10  C   -0.027455   0.002698   0.301600   4.802077  -0.051711   0.000000
    11  C   -0.023480  -0.011767   0.286783  -0.051711   4.821883   0.000000
    12  H    0.000000   0.000000   0.000000   0.000000   0.000000   0.578949
    13  H   -0.000004  -0.000004   0.000000   0.000000   0.000000  -0.024207
    14  H    0.000007   0.000000   0.000000   0.000000   0.000000  -0.024909
    15  H   -0.001083   0.000179   0.000018  -0.000015  -0.000001  -0.000240
    16  H    0.004524   0.007480  -0.000428  -0.000003   0.000028  -0.000061
    17  H   -0.003532   0.021089   0.000916  -0.000051  -0.000010  -0.000073
    18  H   -0.042097   0.000100   0.003679  -0.001422  -0.000274  -0.000001
    19  H   -0.029541   0.001873   0.001819  -0.002778  -0.000200   0.000000
    20  H    0.000654  -0.000031  -0.045763   0.384434  -0.001801   0.000000
    21  H    0.001264  -0.000029  -0.044941   0.383874  -0.002462   0.000000
    22  H   -0.008925   0.000082  -0.028406   0.385640   0.004320   0.000000
    23  H   -0.002651   0.023772  -0.035995   0.004293   0.384196   0.000000
    24  H    0.000827   0.000618  -0.044213  -0.002302   0.386349   0.000000
    25  H    0.000931   0.000638  -0.044836  -0.001286   0.386405   0.000000
             13         14         15         16         17         18
     1  C    0.360696   0.362836   0.001452   0.006917  -0.000362  -0.000006
     2  C   -0.016281  -0.023073  -0.017721  -0.036942  -0.000569   0.000003
     3  O    0.001342   0.001785  -0.000311   0.005050   0.000121   0.000001
     4  C   -0.000344   0.005275   0.359112   0.355860  -0.042092   0.004898
     5  N    0.003169   0.000268  -0.040906  -0.042525   0.340852  -0.037017
     6  C    0.000115  -0.000079  -0.009463  -0.002300  -0.054975   0.372201
     7  C   -0.000004   0.000007  -0.001083   0.004524  -0.003532  -0.042097
     8  O   -0.000004   0.000000   0.000179   0.007480   0.021089   0.000100
     9  N    0.000000   0.000000   0.000018  -0.000428   0.000916   0.003679
    10  C    0.000000   0.000000  -0.000015  -0.000003  -0.000051  -0.001422
    11  C    0.000000   0.000000  -0.000001   0.000028  -0.000010  -0.000274
    12  H   -0.024207  -0.024909  -0.000240  -0.000061  -0.000073  -0.000001
    13  H    0.570414  -0.025819   0.000046  -0.000206   0.000750  -0.000017
    14  H   -0.025819   0.574338   0.000131   0.000068  -0.000016  -0.000011
    15  H    0.000046   0.000131   0.605222  -0.032956   0.006397   0.000399
    16  H   -0.000206   0.000068  -0.032956   0.607105  -0.005125  -0.000250
    17  H    0.000750  -0.000016   0.006397  -0.005125   0.474336  -0.000100
    18  H   -0.000017  -0.000011   0.000399  -0.000250  -0.000100   0.604727
    19  H    0.000001   0.000012   0.008542  -0.000510   0.007168  -0.032821
    20  H    0.000000   0.000000   0.000003   0.000002   0.000000   0.000008
    21  H    0.000000   0.000000   0.000000   0.000000   0.000003   0.000197
    22  H    0.000000   0.000000  -0.000005  -0.000003  -0.000001   0.000733
    23  H    0.000000   0.000000   0.000000   0.000002  -0.000022  -0.000032
    24  H    0.000000   0.000000   0.000000   0.000000   0.000000   0.000037
    25  H    0.000000   0.000000   0.000000   0.000001   0.000000  -0.000008
             19         20         21         22         23         24
     1  C   -0.000004   0.000000   0.000000   0.000000   0.000000   0.000000
     2  C   -0.000050   0.000000   0.000000   0.000000   0.000000   0.000000
     3  O   -0.000001   0.000000   0.000000   0.000000   0.000000   0.000000
     4  C   -0.008223   0.000002   0.000000   0.000000  -0.000001   0.000000
     5  N   -0.035988  -0.000002  -0.000008   0.000067  -0.000006   0.000001
     6  C    0.367056  -0.000173  -0.000333   0.006422   0.001119  -0.000107
     7  C   -0.029541   0.000654   0.001264  -0.008925  -0.002651   0.000827
     8  O    0.001873  -0.000031  -0.000029   0.000082   0.023772   0.000618
     9  N    0.001819  -0.045763  -0.044941  -0.028406  -0.035995  -0.044213
    10  C   -0.002778   0.384434   0.383874   0.385640   0.004293  -0.002302
    11  C   -0.000200  -0.001801  -0.002462   0.004320   0.384196   0.386349
    12  H    0.000000   0.000000   0.000000   0.000000   0.000000   0.000000
    13  H    0.000001   0.000000   0.000000   0.000000   0.000000   0.000000
    14  H    0.000012   0.000000   0.000000   0.000000   0.000000   0.000000
    15  H    0.008542   0.000003   0.000000  -0.000005   0.000000   0.000000
    16  H   -0.000510   0.000002   0.000000  -0.000003   0.000002   0.000000
    17  H    0.007168   0.000000   0.000003  -0.000001  -0.000022   0.000000
    18  H   -0.032821   0.000008   0.000197   0.000733  -0.000032   0.000037
    19  H    0.606480   0.000316   0.000093   0.000825  -0.000034  -0.000007
    20  H    0.000316   0.611795  -0.047140  -0.029624  -0.000061  -0.001747
    21  H    0.000093  -0.047140   0.609486  -0.027154  -0.000045   0.007190
    22  H    0.000825  -0.029624  -0.027154   0.568007  -0.000237   0.000022
    23  H   -0.000034  -0.000061  -0.000045  -0.000237   0.510552  -0.024770
    24  H   -0.000007  -0.001747   0.007190   0.000022  -0.024770   0.609481
    25  H    0.000014   0.006486  -0.002096  -0.000018  -0.023898  -0.044402
             25
     1  C    0.000000
     2  C    0.000000
     3  O    0.000000
     4  C    0.000000
     5  N    0.000002
     6  C   -0.000085
     7  C    0.000931
     8  O    0.000638
     9  N   -0.044836
    10  C   -0.001286
    11  C    0.386405
    12  H    0.000000
    13  H    0.000000
    14  H    0.000000
    15  H    0.000000
    16  H    0.000001
    17  H    0.000000
    18  H   -0.000008
    19  H    0.000014
    20  H    0.006486
    21  H   -0.002096
    22  H   -0.000018
    23  H   -0.023898
    24  H   -0.044402
    25  H    0.608491
 Mulliken atomic charges:
              1
     1  C   -0.366440
     2  C    0.401028
     3  O   -0.441149
     4  C   -0.107322
     5  N   -0.505429
     6  C   -0.136464
     7  C    0.570880
     8  O   -0.523448
     9  N   -0.433997
    10  C   -0.177919
    11  C   -0.182842
    12  H    0.126254
    13  H    0.130351
    14  H    0.129188
    15  H    0.121200
    16  H    0.134274
    17  H    0.255296
    18  H    0.127075
    19  H    0.115962
    20  H    0.122640
    21  H    0.122102
    22  H    0.128256
    23  H    0.163819
    24  H    0.113024
    25  H    0.113662
 Sum of Mulliken atomic charges =   0.00000
 Mulliken charges with hydrogens summed into heavy atoms:
              1
     1  C    0.019353
     2  C    0.401028
     3  O   -0.441149
     4  C    0.148152
     5  N   -0.250133
     6  C    0.106573
     7  C    0.570880
     8  O   -0.523448
     9  N   -0.433997
    10  C    0.195079
    11  C    0.207662
 Sum of Mulliken charges with hydrogens summed into heavy atoms =   0.00000
 Electronic spatial extent (au):  <R**2>=           2797.3227
 Charge=              0.0000 electrons
 Dipole moment (field-independent basis, Debye):
    X=              4.5652    Y=              3.6849    Z=              0.3701  Tot=              5.8785
 Quadrupole moment (field-independent basis, Debye-Ang):
   XX=            -65.0650   YY=            -69.8869   ZZ=            -66.2607
   XY=             -4.0925   XZ=              7.0174   YZ=              1.5507
 Traceless Quadrupole moment (field-independent basis, Debye-Ang):
   XX=              2.0059   YY=             -2.8160   ZZ=              0.8101
   XY=             -4.0925   XZ=              7.0174   YZ=              1.5507
 Octapole moment (field-independent basis, Debye-Ang**2):
  XXX=             77.9757  YYY=             -0.5653  ZZZ=             -1.7527  XYY=             14.3801
  XXY=             27.5296  XXZ=            -16.3238  XZZ=              0.8470  YZZ=              2.0092
  YYZ=              1.8560  XYZ=             -9.6776
 Hexadecapole moment (field-independent basis, Debye-Ang**3):
 XXXX=          -2992.8812 YYYY=           -411.4583 ZZZZ=           -212.3196 XXXY=           -111.7860
 XXXZ=             78.0731 YYYX=              3.3397 YYYZ=              3.4175 ZZZX=             -0.3154
 ZZZY=              1.0032 XXYY=           -583.5279 XXZZ=           -540.3172 YYZZ=           -109.5120
 XXYZ=             33.1062 YYXZ=              5.9181 ZZXY=              0.3122
 N-N= 6.267841078165D+02 E-N=-2.500279940790D+03  KE= 5.301628992296D+02
 Calling FoFJK, ICntrl=      2127 FMM=F ISym2X=0 I1Cent= 0 IOpClX= 0 NMat=1 NMatS=1 NMatT=0.
 ***** Axes restored to original set *****
 -------------------------------------------------------------------
 Center     Atomic                   Forces (Hartrees/Bohr)
 Number     Number              X              Y              Z
 -------------------------------------------------------------------
      1        6          -0.000001586   -0.000005468   -0.000010179
      2        6          -0.000003098    0.000000083   -0.000004676
      3        8          -0.000000148    0.000001245   -0.000000397
      4        6           0.000009297   -0.000016443    0.000024166
      5        7          -0.000012612    0.000013544   -0.000012753
      6        6           0.000012355   -0.000009620    0.000002112
      7        6          -0.000001791    0.000002260   -0.000003153
      8        8           0.000002108   -0.000001240   -0.000000959
      9        7           0.000001202    0.000010651   -0.000003299
     10        6           0.000000616   -0.000007470    0.000002647
     11        6          -0.000006985   -0.000005745   -0.000003409
     12        1           0.000000124    0.000001776    0.000001778
     13        1          -0.000001274    0.000005472    0.000003426
     14        1           0.000002446    0.000002111    0.000007386
     15        1          -0.000001986    0.000000943   -0.000004490
     16        1          -0.000000971    0.000002311   -0.000007881
     17        1           0.000002938    0.000003356    0.000001847
     18        1          -0.000003066    0.000001413    0.000002934
     19        1          -0.000001016    0.000001485    0.000002921
     20        1          -0.000001029   -0.000002855    0.000001627
     21        1          -0.000000441    0.000001039    0.000001266
     22        1           0.000003741   -0.000000588    0.000002496
     23        1          -0.000000358    0.000002436   -0.000001535
     24        1           0.000000671    0.000001956   -0.000000005
     25        1           0.000000864   -0.000002656   -0.000001870
 -------------------------------------------------------------------
 Cartesian Forces:  Max     0.000024166 RMS     0.000005767

 GradGradGradGradGradGradGradGradGradGradGradGradGradGradGradGradGradGrad
 Berny optimization.
 Internal  Forces:  Max     0.000012690 RMS     0.000003043
 Search for a local minimum.
 Step number   1 out of a maximum of  122 on scan point     1 out of    37
 All quantities printed in internal units (Hartrees-Bohrs-Radians)
 Mixed Optimization -- En-DIIS/RFO-DIIS
 Second derivative matrix not updated -- first step.
 ITU=  0
     Eigenvalues ---    0.00230   0.00349   0.00466   0.00571   0.00856
     Eigenvalues ---    0.00935   0.00987   0.01010   0.01276   0.02098
     Eigenvalues ---    0.02231   0.03941   0.04673   0.06396   0.06457
     Eigenvalues ---    0.07253   0.07293   0.07355   0.07467   0.07476
     Eigenvalues ---    0.07655   0.10008   0.10125   0.10245   0.12706
     Eigenvalues ---    0.13387   0.16000   0.16000   0.16000   0.16000
     Eigenvalues ---    0.16000   0.16000   0.16000   0.16000   0.16000
     Eigenvalues ---    0.21973   0.22002   0.23650   0.24979   0.24991
     Eigenvalues ---    0.24996   0.24998   0.25000   0.25000   0.27898
     Eigenvalues ---    0.29280   0.30880   0.33618   0.33775   0.33811
     Eigenvalues ---    0.33898   0.33966   0.33991   0.34022   0.34219
     Eigenvalues ---    0.34229   0.34273   0.34721   0.35007   0.35039
     Eigenvalues ---    0.36572   0.37318   0.37792   0.37821   0.44428
     Eigenvalues ---    0.51110   0.91178   0.969551000.000001000.00000
     Eigenvalues --- 1000.000001000.000001000.000001000.000001000.00000
     Eigenvalues --- 1000.000001000.000001000.000001000.000001000.00000
     Eigenvalues --- 1000.000001000.000001000.000001000.000001000.00000
     Eigenvalues --- 1000.000001000.000001000.000001000.000001000.00000
     Eigenvalues --- 1000.000001000.000001000.000001000.000001000.00000
     Eigenvalues --- 1000.000001000.000001000.000001000.000001000.00000
     Eigenvalues --- 1000.000001000.000001000.000001000.000001000.00000
     Eigenvalues --- 1000.000001000.000001000.000001000.000001000.00000
     Eigenvalues --- 1000.000001000.00000
 RFO step:  Lambda=-1.29632154D-08 EMin= 2.30000000D-03
 Linear search not attempted -- first point.
 Iteration  1 RMS(Cart)=  0.00023710 RMS(Int)=  0.00000004
 Iteration  2 RMS(Cart)=  0.00000005 RMS(Int)=  0.00000000
 Iteration  1 RMS(Cart)=  0.00000000 RMS(Int)=  0.00000000
 Variable       Old X    -DE/DX   Delta X   Delta X   Delta X     New X
                                 (Linear)    (Quad)   (Total)
    R1        2.86242   0.00000   0.00000   0.00000   0.00000   2.86242
    R2        2.06130   0.00000   0.00000   0.00000   0.00000   2.06130
    R3        2.06945   0.00000   0.00000   0.00001   0.00001   2.06945
    R4        2.06872   0.00000   0.00000  -0.00001  -0.00001   2.06871
    R5        2.29884   0.00000   0.00000   0.00000   0.00000   2.29884
    R6        2.89422   0.00000   0.00000   0.00001   0.00001   2.89423
    R7        2.76496  -0.00001   0.00000  -0.00003  -0.00003   2.76492
    R8        2.07979   0.00000   0.00000   0.00001   0.00001   2.07980
    R9        2.07650   0.00000   0.00000   0.00001   0.00001   2.07651
   R10        2.74669   0.00001   0.00000   0.00002   0.00002   2.74671
   R11        1.92645   0.00000   0.00000   0.00001   0.00001   1.92646
   R12        2.92361   0.00000   0.00000   0.00000   0.00000   2.92361
   R13        2.07711   0.00000   0.00000   0.00000   0.00000   2.07711
   R14        2.06962   0.00000   0.00000  -0.00001  -0.00001   2.06961
   R15        2.32395   0.00000   0.00000   0.00000   0.00000   2.32394
   R16        2.58761   0.00000   0.00000   0.00000   0.00000   2.58761
   R17        2.74627   0.00001   0.00000   0.00001   0.00001   2.74628
   R18        2.75369  -0.00001   0.00000  -0.00002  -0.00002   2.75367
   R19        2.07503   0.00000   0.00000   0.00000   0.00000   2.07503
   R20        2.07387   0.00000   0.00000   0.00000   0.00000   2.07387
   R21        2.05611   0.00000   0.00000  -0.00001  -0.00001   2.05610
   R22        2.05663   0.00000   0.00000   0.00001   0.00001   2.05664
   R23        2.07345   0.00000   0.00000   0.00000   0.00000   2.07346
   R24        2.07292   0.00000   0.00000   0.00000   0.00000   2.07292
    A1        1.90723   0.00000   0.00000   0.00000   0.00000   1.90724
    A2        1.92686   0.00000   0.00000  -0.00003  -0.00003   1.92683
    A3        1.92985   0.00000   0.00000   0.00003   0.00003   1.92988
    A4        1.91770   0.00000   0.00000  -0.00003  -0.00003   1.91767
    A5        1.93311   0.00000   0.00000   0.00003   0.00003   1.93314
    A6        1.84865   0.00000   0.00000  -0.00001  -0.00001   1.84864
    A7        2.13404   0.00000   0.00000   0.00000   0.00000   2.13404
    A8        2.06009   0.00000   0.00000   0.00000   0.00000   2.06009
    A9        2.08835   0.00000   0.00000   0.00000   0.00000   2.08835
   A10        1.98172   0.00001   0.00000   0.00004   0.00004   1.98176
   A11        1.83846  -0.00001   0.00000  -0.00005  -0.00005   1.83841
   A12        1.87991   0.00000   0.00000  -0.00001  -0.00001   1.87989
   A13        1.88540   0.00000   0.00000   0.00002   0.00002   1.88542
   A14        2.00152   0.00000   0.00000   0.00004   0.00004   2.00156
   A15        1.86657   0.00000   0.00000  -0.00005  -0.00005   1.86652
   A16        1.98377   0.00000   0.00000   0.00002   0.00002   1.98379
   A17        1.87810   0.00000   0.00000   0.00001   0.00001   1.87811
   A18        1.85597   0.00000   0.00000  -0.00002  -0.00002   1.85595
   A19        1.96705  -0.00001   0.00000  -0.00005  -0.00005   1.96700
   A20        1.90593   0.00000   0.00000   0.00000   0.00000   1.90593
   A21        1.89876   0.00000   0.00000  -0.00001  -0.00001   1.89874
   A22        1.88777   0.00000   0.00000   0.00004   0.00004   1.88781
   A23        1.94036   0.00000   0.00000   0.00000   0.00000   1.94036
   A24        1.86072   0.00000   0.00000   0.00002   0.00002   1.86074
   A25        2.07773   0.00000   0.00000  -0.00002  -0.00002   2.07771
   A26        2.06948   0.00001   0.00000   0.00004   0.00004   2.06952
   A27        2.13560  -0.00001   0.00000  -0.00002  -0.00002   2.13558
   A28        2.18573   0.00001   0.00000   0.00003   0.00003   2.18575
   A29        2.08100  -0.00001   0.00000  -0.00003  -0.00003   2.08097
   A30        2.01633   0.00000   0.00000   0.00000   0.00000   2.01633
   A31        1.93554   0.00000   0.00000  -0.00001  -0.00001   1.93553
   A32        1.92350   0.00000   0.00000  -0.00001  -0.00001   1.92349
   A33        1.94822   0.00000   0.00000   0.00003   0.00003   1.94825
   A34        1.88123   0.00000   0.00000   0.00000   0.00000   1.88123
   A35        1.89060   0.00000   0.00000  -0.00001  -0.00001   1.89060
   A36        1.88258   0.00000   0.00000   0.00000   0.00000   1.88258
   A37        1.89232   0.00000   0.00000   0.00000   0.00000   1.89233
   A38        1.92996   0.00000   0.00000   0.00000   0.00000   1.92996
   A39        1.92688   0.00000   0.00000   0.00000   0.00000   1.92688
   A40        1.91102   0.00000   0.00000  -0.00001  -0.00001   1.91101
   A41        1.91338   0.00000   0.00000   0.00001   0.00001   1.91339
   A42        1.89029   0.00000   0.00000   0.00000   0.00000   1.89028
    D1        0.08258   0.00000   0.00000   0.00037   0.00037   0.08295
    D2       -3.01842   0.00000   0.00000   0.00032   0.00032  -3.01810
    D3       -2.02847   0.00000   0.00000   0.00042   0.00042  -2.02805
    D4        1.15372   0.00000   0.00000   0.00036   0.00036   1.15408
    D5        2.21473   0.00000   0.00000   0.00043   0.00043   2.21516
    D6       -0.88627   0.00000   0.00000   0.00038   0.00038  -0.88590
    D7       -0.42033   0.00000   0.00000   0.00018   0.00018  -0.42016
    D8        1.63919   0.00000   0.00000   0.00019   0.00019   1.63938
    D9       -2.65637   0.00000   0.00000   0.00011   0.00011  -2.65626
   D10        2.76075   0.00000   0.00000   0.00012   0.00012   2.76088
   D11       -1.46291   0.00000   0.00000   0.00013   0.00013  -1.46278
   D12        0.52471   0.00000   0.00000   0.00005   0.00005   0.52477
   D13        2.94790   0.00000   0.00000  -0.00008  -0.00008   2.94782
   D14       -1.28502   0.00000   0.00000  -0.00009  -0.00009  -1.28512
   D15        0.91573   0.00000   0.00000  -0.00006  -0.00006   0.91567
   D16        2.96599   0.00000   0.00000  -0.00007  -0.00007   2.96592
   D17       -1.16357   0.00000   0.00000  -0.00003  -0.00003  -1.16360
   D18        0.88670   0.00000   0.00000  -0.00004  -0.00004   0.88666
   D19        1.33419   0.00000   0.00000   0.00000   0.00000   1.33419
   D20       -2.85057   0.00000   0.00000   0.00002   0.00002  -2.85055
   D21       -0.82612   0.00000   0.00000   0.00005   0.00005  -0.82607
   D22       -0.72887   0.00000   0.00000  -0.00001  -0.00001  -0.72888
   D23        1.36956   0.00000   0.00000   0.00001   0.00001   1.36957
   D24       -2.88917   0.00000   0.00000   0.00003   0.00003  -2.88913
   D25        0.17740   0.00000   0.00000   0.00029   0.00029   0.17769
   D26       -2.99278   0.00000   0.00000   0.00021   0.00021  -2.99257
   D27       -1.93144   0.00000   0.00000   0.00029   0.00029  -1.93115
   D28        1.18156   0.00000   0.00000   0.00021   0.00021   1.18178
   D29        2.31450   0.00000   0.00000   0.00024   0.00024   2.31474
   D30       -0.85568   0.00000   0.00000   0.00016   0.00016  -0.85552
   D31       -0.00867   0.00000   0.00000  -0.00005  -0.00005  -0.00873
   D32       -3.13203   0.00000   0.00000   0.00004   0.00004  -3.13199
   D33        3.10333   0.00000   0.00000  -0.00013  -0.00013   3.10320
   D34       -0.02003   0.00000   0.00000  -0.00003  -0.00003  -0.02006
   D35        2.04999   0.00000   0.00000  -0.00003  -0.00003   2.04996
   D36       -2.15148   0.00000   0.00000  -0.00004  -0.00004  -2.15152
   D37       -0.05991   0.00000   0.00000  -0.00004  -0.00004  -0.05995
   D38       -1.10924   0.00000   0.00000  -0.00013  -0.00013  -1.10937
   D39        0.97248   0.00000   0.00000  -0.00014  -0.00014   0.97234
   D40        3.06405   0.00000   0.00000  -0.00013  -0.00013   3.06391
   D41       -0.02610   0.00000   0.00000  -0.00009  -0.00009  -0.02619
   D42        2.06916   0.00000   0.00000  -0.00010  -0.00010   2.06906
   D43       -2.12241   0.00000   0.00000  -0.00010  -0.00010  -2.12252
   D44        3.13200   0.00000   0.00000   0.00000   0.00000   3.13200
   D45       -1.05593   0.00000   0.00000  -0.00001  -0.00001  -1.05594
   D46        1.03569   0.00000   0.00000  -0.00001  -0.00001   1.03567
         Item               Value     Threshold  Converged?
 Maximum Force            0.000013     0.000450     YES
 RMS     Force            0.000003     0.000300     YES
 Maximum Displacement     0.001102     0.001800     YES
 RMS     Displacement     0.000237     0.001200     YES
 Predicted change in Energy=-6.481599D-09
 Optimization completed.
    -- Stationary point found.
                           ----------------------------
                           !   Optimized Parameters   !
                           ! (Angstroms and Degrees)  !
 --------------------------                            --------------------------
 ! Name  Definition              Value          Derivative Info.                !
 --------------------------------------------------------------------------------
 ! R1    R(1,2)                  1.5147         -DE/DX =    0.0                 !
 ! R2    R(1,12)                 1.0908         -DE/DX =    0.0                 !
 ! R3    R(1,13)                 1.0951         -DE/DX =    0.0                 !
 ! R4    R(1,14)                 1.0947         -DE/DX =    0.0                 !
 ! R5    R(2,3)                  1.2165         -DE/DX =    0.0                 !
 ! R6    R(2,4)                  1.5316         -DE/DX =    0.0                 !
 ! R7    R(4,5)                  1.4632         -DE/DX =    0.0                 !
 ! R8    R(4,15)                 1.1006         -DE/DX =    0.0                 !
 ! R9    R(4,16)                 1.0988         -DE/DX =    0.0                 !
 ! R10   R(5,6)                  1.4535         -DE/DX =    0.0                 !
 ! R11   R(5,17)                 1.0194         -DE/DX =    0.0                 !
 ! R12   R(6,7)                  1.5471         -DE/DX =    0.0                 !
 ! R13   R(6,18)                 1.0992         -DE/DX =    0.0                 !
 ! R14   R(6,19)                 1.0952         -DE/DX =    0.0                 !
 ! R15   R(7,8)                  1.2298         -DE/DX =    0.0                 !
 ! R16   R(7,9)                  1.3693         -DE/DX =    0.0                 !
 ! R17   R(9,10)                 1.4533         -DE/DX =    0.0                 !
 ! R18   R(9,11)                 1.4572         -DE/DX =    0.0                 !
 ! R19   R(10,20)                1.0981         -DE/DX =    0.0                 !
 ! R20   R(10,21)                1.0974         -DE/DX =    0.0                 !
 ! R21   R(10,22)                1.088          -DE/DX =    0.0                 !
 ! R22   R(11,23)                1.0883         -DE/DX =    0.0                 !
 ! R23   R(11,24)                1.0972         -DE/DX =    0.0                 !
 ! R24   R(11,25)                1.0969         -DE/DX =    0.0                 !
 ! A1    A(2,1,12)             109.2765         -DE/DX =    0.0                 !
 ! A2    A(2,1,13)             110.4007         -DE/DX =    0.0                 !
 ! A3    A(2,1,14)             110.5725         -DE/DX =    0.0                 !
 ! A4    A(12,1,13)            109.876          -DE/DX =    0.0                 !
 ! A5    A(12,1,14)            110.759          -DE/DX =    0.0                 !
 ! A6    A(13,1,14)            105.9197         -DE/DX =    0.0                 !
 ! A7    A(1,2,3)              122.2716         -DE/DX =    0.0                 !
 ! A8    A(1,2,4)              118.0343         -DE/DX =    0.0                 !
 ! A9    A(3,2,4)              119.6535         -DE/DX =    0.0                 !
 ! A10   A(2,4,5)              113.5442         -DE/DX =    0.0                 !
 ! A11   A(2,4,15)             105.3361         -DE/DX =    0.0                 !
 ! A12   A(2,4,16)             107.7107         -DE/DX =    0.0                 !
 ! A13   A(5,4,15)             108.0256         -DE/DX =    0.0                 !
 ! A14   A(5,4,16)             114.6784         -DE/DX =    0.0                 !
 ! A15   A(15,4,16)            106.9468         -DE/DX =    0.0                 !
 ! A16   A(4,5,6)              113.6618         -DE/DX =    0.0                 !
 ! A17   A(4,5,17)             107.6073         -DE/DX =    0.0                 !
 ! A18   A(6,5,17)             106.3394         -DE/DX =    0.0                 !
 ! A19   A(5,6,7)              112.7036         -DE/DX =    0.0                 !
 ! A20   A(5,6,18)             109.2018         -DE/DX =    0.0                 !
 ! A21   A(5,6,19)             108.7908         -DE/DX =    0.0                 !
 ! A22   A(7,6,18)             108.1611         -DE/DX =    0.0                 !
 ! A23   A(7,6,19)             111.1746         -DE/DX =    0.0                 !
 ! A24   A(18,6,19)            106.6112         -DE/DX =    0.0                 !
 ! A25   A(6,7,8)              119.045          -DE/DX =    0.0                 !
 ! A26   A(6,7,9)              118.5727         -DE/DX =    0.0                 !
 ! A27   A(8,7,9)              122.361          -DE/DX =    0.0                 !
 ! A28   A(7,9,10)             125.2331         -DE/DX =    0.0                 !
 ! A29   A(7,9,11)             119.2323         -DE/DX =    0.0                 !
 ! A30   A(10,9,11)            115.5271         -DE/DX =    0.0                 !
 ! A31   A(9,10,20)            110.8981         -DE/DX =    0.0                 !
 ! A32   A(9,10,21)            110.2082         -DE/DX =    0.0                 !
 ! A33   A(9,10,22)            111.625          -DE/DX =    0.0                 !
 ! A34   A(20,10,21)           107.7868         -DE/DX =    0.0                 !
 ! A35   A(20,10,22)           108.3235         -DE/DX =    0.0                 !
 ! A36   A(21,10,22)           107.8638         -DE/DX =    0.0                 !
 ! A37   A(9,11,23)            108.4222         -DE/DX =    0.0                 !
 ! A38   A(9,11,24)            110.5785         -DE/DX =    0.0                 !
 ! A39   A(9,11,25)            110.4022         -DE/DX =    0.0                 !
 ! A40   A(23,11,24)           109.4933         -DE/DX =    0.0                 !
 ! A41   A(23,11,25)           109.6289         -DE/DX =    0.0                 !
 ! A42   A(24,11,25)           108.3056         -DE/DX =    0.0                 !
 ! D1    D(12,1,2,3)             4.7315         -DE/DX =    0.0                 !
 ! D2    D(12,1,2,4)          -172.9428         -DE/DX =    0.0                 !
 ! D3    D(13,1,2,3)          -116.2226         -DE/DX =    0.0                 !
 ! D4    D(13,1,2,4)            66.1031         -DE/DX =    0.0                 !
 ! D5    D(14,1,2,3)           126.8946         -DE/DX =    0.0                 !
 ! D6    D(14,1,2,4)           -50.7797         -DE/DX =    0.0                 !
 ! D7    D(1,2,4,5)            -24.0834         -DE/DX =    0.0                 !
 ! D8    D(1,2,4,15)            93.9186         -DE/DX =    0.0                 !
 ! D9    D(1,2,4,16)          -152.1988         -DE/DX =    0.0                 !
 ! D10   D(3,2,4,5)            158.1793         -DE/DX =    0.0                 !
 ! D11   D(3,2,4,15)           -83.8186         -DE/DX =    0.0                 !
 ! D12   D(3,2,4,16)            30.0639         -DE/DX =    0.0                 !
 ! D13   D(2,4,5,6)            168.9022         -DE/DX =    0.0                 !
 ! D14   D(2,4,5,17)           -73.6265         -DE/DX =    0.0                 !
 ! D15   D(15,4,5,6)            52.4673         -DE/DX =    0.0                 !
 ! D16   D(15,4,5,17)          169.9386         -DE/DX =    0.0                 !
 ! D17   D(16,4,5,6)           -66.6674         -DE/DX =    0.0                 !
 ! D18   D(16,4,5,17)           50.8039         -DE/DX =    0.0                 !
 ! D19   D(4,5,6,7)             76.4432         -DE/DX =    0.0                 !
 ! D20   D(4,5,6,18)          -163.3259         -DE/DX =    0.0                 !
 ! D21   D(4,5,6,19)           -47.333          -DE/DX =    0.0                 !
 ! D22   D(17,5,6,7)           -41.7609         -DE/DX =    0.0                 !
 ! D23   D(17,5,6,18)           78.47           -DE/DX =    0.0                 !
 ! D24   D(17,5,6,19)         -165.5371         -DE/DX =    0.0                 !
 ! D25   D(5,6,7,8)             10.1643         -DE/DX =    0.0                 !
 ! D26   D(5,6,7,9)           -171.4739         -DE/DX =    0.0                 !
 ! D27   D(18,6,7,8)          -110.6634         -DE/DX =    0.0                 !
 ! D28   D(18,6,7,9)            67.6985         -DE/DX =    0.0                 !
 ! D29   D(19,6,7,8)           132.6112         -DE/DX =    0.0                 !
 ! D30   D(19,6,7,9)           -49.027          -DE/DX =    0.0                 !
 ! D31   D(6,7,9,10)            -0.497          -DE/DX =    0.0                 !
 ! D32   D(6,7,9,11)          -179.4521         -DE/DX =    0.0                 !
 ! D33   D(8,7,9,10)           177.8075         -DE/DX =    0.0                 !
 ! D34   D(8,7,9,11)            -1.1476         -DE/DX =    0.0                 !
 ! D35   D(7,9,10,20)          117.4558         -DE/DX =    0.0                 !
 ! D36   D(7,9,10,21)         -123.2706         -DE/DX =    0.0                 !
 ! D37   D(7,9,10,22)           -3.4325         -DE/DX =    0.0                 !
 ! D38   D(11,9,10,20)         -63.5547         -DE/DX =    0.0                 !
 ! D39   D(11,9,10,21)          55.719          -DE/DX =    0.0                 !
 ! D40   D(11,9,10,22)         175.557          -DE/DX =    0.0                 !
 ! D41   D(7,9,11,23)           -1.4956         -DE/DX =    0.0                 !
 ! D42   D(7,9,11,24)          118.5539         -DE/DX =    0.0                 !
 ! D43   D(7,9,11,25)         -121.6053         -DE/DX =    0.0                 !
 ! D44   D(10,9,11,23)         179.4502         -DE/DX =    0.0                 !
 ! D45   D(10,9,11,24)         -60.5002         -DE/DX =    0.0                 !
 ! D46   D(10,9,11,25)          59.3405         -DE/DX =    0.0                 !
 --------------------------------------------------------------------------------
 Iteration  1 RMS(Cart)=  0.04402247 RMS(Int)=  0.01262379
 Iteration  2 RMS(Cart)=  0.00082180 RMS(Int)=  0.01261415
 Iteration  3 RMS(Cart)=  0.00000401 RMS(Int)=  0.01261415
 Iteration  4 RMS(Cart)=  0.00000015 RMS(Int)=  0.01261415
 Iteration  1 RMS(Cart)=  0.02559185 RMS(Int)=  0.00739131
 Iteration  2 RMS(Cart)=  0.01493498 RMS(Int)=  0.00824061
 Iteration  3 RMS(Cart)=  0.00873684 RMS(Int)=  0.00938135
 Iteration  4 RMS(Cart)=  0.00511972 RMS(Int)=  0.01020023
 Iteration  5 RMS(Cart)=  0.00300336 RMS(Int)=  0.01072005
 Iteration  6 RMS(Cart)=  0.00176305 RMS(Int)=  0.01103676
 Iteration  7 RMS(Cart)=  0.00103538 RMS(Int)=  0.01122639
 Iteration  8 RMS(Cart)=  0.00060819 RMS(Int)=  0.01133896
 Iteration  9 RMS(Cart)=  0.00035731 RMS(Int)=  0.01140549
 Iteration 10 RMS(Cart)=  0.00020993 RMS(Int)=  0.01144471
 Iteration 11 RMS(Cart)=  0.00012335 RMS(Int)=  0.01146780
 Iteration 12 RMS(Cart)=  0.00007248 RMS(Int)=  0.01148139
 Iteration 13 RMS(Cart)=  0.00004259 RMS(Int)=  0.01148938
 Iteration 14 RMS(Cart)=  0.00002503 RMS(Int)=  0.01149407
 Iteration 15 RMS(Cart)=  0.00001471 RMS(Int)=  0.01149683
 Iteration 16 RMS(Cart)=  0.00000864 RMS(Int)=  0.01149845
 Iteration 17 RMS(Cart)=  0.00000508 RMS(Int)=  0.01149941
 Iteration 18 RMS(Cart)=  0.00000298 RMS(Int)=  0.01149997
 Iteration 19 RMS(Cart)=  0.00000175 RMS(Int)=  0.01150030
 Iteration 20 RMS(Cart)=  0.00000103 RMS(Int)=  0.01150049
 Iteration 21 RMS(Cart)=  0.00000061 RMS(Int)=  0.01150060
 GradGradGradGradGradGradGradGradGradGradGradGradGradGradGradGradGradGrad

                          Input orientation:                          
 ---------------------------------------------------------------------
 Center     Atomic      Atomic             Coordinates (Angstroms)
 Number     Number       Type             X           Y           Z
 ---------------------------------------------------------------------
      1          6           0       -3.799714   -0.766253    0.651886
      2          6           0       -3.173743    0.208070   -0.325432
      3          8           0       -3.827399    1.049659   -0.912878
      4          6           0       -1.674187    0.079178   -0.609691
      5          7           0       -0.928980   -0.573395    0.467866
      6          6           0        0.427332   -0.958176    0.114159
      7          6           0        1.444815    0.187703    0.328763
      8          8           0        1.075743    1.216071    0.893339
      9          7           0        2.736008    0.003898   -0.088562
     10          6           0        3.249744   -1.200421   -0.719327
     11          6           0        3.709089    1.069158    0.117430
     12          1           0       -4.882105   -0.630215    0.652559
     13          1           0       -3.403089   -0.603649    1.660126
     14          1           0       -3.538591   -1.796580    0.388966
     15          1           0       -1.601752   -0.554727   -1.506846
     16          1           0       -1.299910    1.074246   -0.889423
     17          1           0       -0.837136    0.035778    1.280200
     18          1           0        0.763474   -1.746095    0.802904
     19          1           0        0.424249   -1.397270   -0.889195
     20          1           0        3.599536   -0.989830   -1.738780
     21          1           0        4.099828   -1.594586   -0.147747
     22          1           0        2.492434   -1.980147   -0.771722
     23          1           0        3.202816    1.912051    0.584052
     24          1           0        4.524413    0.726482    0.767108
     25          1           0        4.140853    1.383329   -0.840917
 ---------------------------------------------------------------------
                    Distance matrix (angstroms):
                    1          2          3          4          5
     1  C    0.000000
     2  C    1.515353   0.000000
     3  O    2.397246   1.216812   0.000000
     4  C    2.612316   1.531693   2.381192   0.000000
     5  N    2.883083   2.505787   3.597441   1.463664   0.000000
     6  C    4.265430   3.810657   4.815489   2.452844   1.453529
     7  C    5.340367   4.664703   5.484604   3.258933   2.496702
     8  O    5.268585   4.534269   5.227897   3.333728   2.720686
     9  N    6.622466   5.918019   6.697120   4.441516   3.751669
    10  C    7.194691   6.587881   7.428746   5.088663   4.389114
    11  C    7.748322   6.950610   7.606613   5.521633   4.932796
    12  H    1.090907   2.139554   2.526851   3.519553   3.957845
    13  H    1.095582   2.157297   3.087688   2.933841   2.746564
    14  H    1.094936   2.159189   3.143132   2.826975   2.883136
    15  H    3.088025   2.109206   2.807197   1.100895   2.086254
    16  H    3.465846   2.139999   2.527718   1.099315   2.166689
    17  H    3.132874   2.840329   3.844375   2.067420   1.019516
    18  H    4.669644   4.538015   5.642363   3.356969   2.086116
    19  H    4.540371   3.980011   4.905561   2.580980   2.086052
    20  H    7.779085   7.022095   7.746030   5.498161   5.054717
    21  H    7.983001   7.495730   8.391566   6.029438   5.168242
    22  H    6.564397   6.090404   7.009988   4.650570   3.901487
    23  H    7.497556   6.662674   7.239368   5.345055   4.823141
    24  H    8.457696   7.792560   8.525230   6.382571   5.614154
    25  H    8.360727   7.426323   7.975560   5.963972   5.589713
                    6          7          8          9         10
     6  C    0.000000
     7  C    1.547374   0.000000
     8  O    2.398940   1.229838   0.000000
     9  N    2.509317   1.369352   2.278151   0.000000
    10  C    2.952861   2.506621   3.628554   1.453332   0.000000
    11  C    3.857464   2.438968   2.749205   1.457428   2.462143
    12  H    5.346733   6.387781   6.242011   7.680300   8.266448
    13  H    4.145821   5.089296   4.894822   6.412140   7.090706
    14  H    4.062878   5.364264   5.533763   6.545254   6.903999
    15  H    2.628232   3.633487   4.008190   4.597798   4.957228
    16  H    2.849786   3.131046   2.973564   4.251547   5.089439
    17  H    1.986574   2.477016   2.280759   3.826471   4.714751
    18  H    1.099171   2.104426   2.979953   2.783537   2.965887
    19  H    1.095231   2.244352   3.229772   2.819312   2.837433
    20  H    3.673862   3.210007   4.261875   2.111018   1.098175
    21  H    3.736421   3.233065   4.257785   2.102060   1.097594
    22  H    2.468573   2.647290   3.872369   2.112456   1.088226
    23  H    4.020239   2.475706   2.259311   2.076384   3.374683
    24  H    4.477778   3.156953   3.485535   2.110140   2.747222
    25  H    4.492779   3.172743   3.525694   2.107714   2.735804
                   11         12         13         14         15
    11  C    0.000000
    12  H    8.773987   0.000000
    13  H    7.467347   1.789801   0.000000
    14  H    7.798401   1.798587   1.748511   0.000000
    15  H    5.786217   3.928033   3.643751   2.981216   0.000000
    16  H    5.109192   4.256175   3.706602   3.858447   1.768013
    17  H    4.805005   4.147199   2.671578   3.383739   2.949738
    18  H    4.131849   5.756766   4.404573   4.322228   3.514057
    19  H    4.229272   5.578779   4.666625   4.182971   2.279484
    20  H    2.774337   8.819640   7.793488   7.492063   5.224605
    21  H    2.705277   9.068937   7.781010   7.659915   5.952853
    22  H    3.401338   7.631167   6.524249   6.144441   4.397111
    23  H    1.088356   8.475481   7.150152   7.696660   5.791435
    24  H    1.097388   9.504542   8.087769   8.457001   6.658998
    25  H    1.097066   9.364754   8.192336   8.402279   6.097297
                   16         17         18         19         20
    16  H    0.000000
    17  H    2.449457   0.000000
    18  H    3.882763   2.442301   0.000000
    19  H    3.013489   2.889808   1.760668   0.000000
    20  H    5.383900   5.463531   3.882698   3.312137   0.000000
    21  H    6.068765   5.391727   3.472455   3.754805   1.774094
    22  H    4.870835   4.400042   2.350219   2.151960   1.772457
    23  H    4.811194   4.508463   4.402309   4.565359   3.738162
    24  H    6.065292   5.430151   4.501064   4.905610   3.174996
    25  H    5.449751   5.576325   4.888981   4.641897   2.594429
                   21         22         23         24         25
    21  H    0.000000
    22  H    1.766838   0.000000
    23  H    3.692785   4.182341   0.000000
    24  H    2.530729   3.717899   1.784853   0.000000
    25  H    3.057800   3.746337   1.786057   1.778851   0.000000
 Stoichiometry    C7H14N2O2
 Framework group  C1[X(C7H14N2O2)]
 Deg. of freedom    69
 Full point group                 C1      NOp   1
 Largest Abelian subgroup         C1      NOp   1
 Largest concise Abelian subgroup C1      NOp   1
                         Standard orientation:                         
 ---------------------------------------------------------------------
 Center     Atomic      Atomic             Coordinates (Angstroms)
 Number     Number       Type             X           Y           Z
 ---------------------------------------------------------------------
      1          6           0       -3.791257    0.680621   -0.754153
      2          6           0       -3.168466   -0.207373    0.304097
      3          8           0       -3.822385   -1.003361    0.951725
      4          6           0       -1.672469   -0.045605    0.590289
      5          7           0       -0.921238    0.523104   -0.529772
      6          6           0        0.429290    0.944531   -0.196275
      7          6           0        1.455810   -0.207850   -0.308707
      8          8           0        1.098419   -1.280922   -0.791708
      9          7           0        2.741871    0.017938    0.103838
     10          6           0        3.242208    1.272721    0.639893
     11          6           0        3.723412   -1.053701   -0.006907
     12          1           0       -4.872732    0.537483   -0.753428
     13          1           0       -3.384194    0.440002   -1.742436
     14          1           0       -3.538990    1.730575   -0.572927
     15          1           0       -1.612374    0.659059    1.433975
     16          1           0       -1.294684   -1.012264    0.952701
     17          1           0       -0.818011   -0.148933   -1.289459
     18          1           0        0.766999    1.676659   -0.943349
     19          1           0        0.414080    1.463063    0.768310
     20          1           0        3.583718    1.147439    1.676070
     21          1           0        4.095162    1.625391    0.045918
     22          1           0        2.479631    2.048871    0.622497
     23          1           0        3.226762   -1.934958   -0.408458
     24          1           0        4.542658   -0.758889   -0.674876
     25          1           0        4.148103   -1.286583    0.977449
 ---------------------------------------------------------------------
 Rotational constants (GHZ):      2.7745987      0.4152095      0.3962284
 Standard basis: 6-31G(d,p) (6D, 7F)
 There are   235 symmetry adapted basis functions of A   symmetry.
 Integral buffers will be    131072 words long.
 Raffenetti 2 integral format.
 Two-electron integral symmetry is turned on.
   235 basis functions,   406 primitive gaussians,   235 cartesian basis functions
    43 alpha electrons       43 beta electrons
       nuclear repulsion energy       624.2891946099 Hartrees.
 NAtoms=   25 NActive=   25 NUniq=   25 SFac= 1.00D+00 NAtFMM=   60 NAOKFM=F Big=F
 One-electron integrals computed using PRISM.
 NBasis=   235 RedAO= T  NBF=   235
 NBsUse=   235 1.00D-06 NBFU=   235
 Initial guess read from the read-write file.
 B after Tr=     0.000000    0.000000    0.000000
         Rot=    1.000000    0.000000    0.000000    0.000000 Ang=   0.00 deg.
 Initial guess orbital symmetries:
       Occupied  (A) (A) (A) (A) (A) (A) (A) (A) (A) (A) (A) (A)
                 (A) (A) (A) (A) (A) (A) (A) (A) (A) (A) (A) (A)
                 (A) (A) (A) (A) (A) (A) (A) (A) (A) (A) (A) (A)
[...]
 ! A22   A(7,6,18)             109.3879         -DE/DX =   -0.0003              !
 ! A23   A(7,6,19)             107.9108         -DE/DX =    0.0003              !
 ! A24   A(18,6,19)            106.4689         -DE/DX =    0.0                 !
 ! A25   A(6,7,8)              119.6829         -DE/DX =    0.0                 !
 ! A26   A(6,7,9)              118.0218         -DE/DX =    0.0                 !
 ! A27   A(8,7,9)              122.2936         -DE/DX =    0.0                 !
 ! A28   A(7,9,10)             125.2223         -DE/DX =    0.0                 !
 ! A29   A(7,9,11)             119.1779         -DE/DX =    0.0                 !
 ! A30   A(10,9,11)            115.4704         -DE/DX =    0.0                 !
 ! A31   A(9,10,20)            110.7958         -DE/DX =    0.0                 !
 ! A32   A(9,10,21)            110.1564         -DE/DX =    0.0                 !
 ! A33   A(9,10,22)            111.6383         -DE/DX =    0.0                 !
 ! A34   A(20,10,21)           107.8557         -DE/DX =    0.0                 !
 ! A35   A(20,10,22)           108.2491         -DE/DX =    0.0                 !
 ! A36   A(21,10,22)           108.0186         -DE/DX =    0.0                 !
 ! A37   A(9,11,23)            108.5649         -DE/DX =    0.0                 !
 ! A38   A(9,11,24)            110.2219         -DE/DX =    0.0                 !
 ! A39   A(9,11,25)            110.6289         -DE/DX =    0.0                 !
 ! A40   A(23,11,24)           109.6791         -DE/DX =    0.0                 !
 ! A41   A(23,11,25)           109.4            -DE/DX =    0.0                 !
 ! A42   A(24,11,25)           108.3349         -DE/DX =    0.0                 !
 ! D1    D(12,1,2,3)             6.1702         -DE/DX =    0.0                 !
 ! D2    D(12,1,2,4)          -171.5569         -DE/DX =    0.0                 !
 ! D3    D(13,1,2,3)          -114.6743         -DE/DX =    0.0                 !
 ! D4    D(13,1,2,4)            67.5986         -DE/DX =    0.0                 !
 ! D5    D(14,1,2,3)           128.4543         -DE/DX =    0.0                 !
 ! D6    D(14,1,2,4)           -49.2728         -DE/DX =    0.0                 !
 ! D7    D(1,2,4,5)            -28.4686         -DE/DX =    0.0                 !
 ! D8    D(1,2,4,15)            90.0301         -DE/DX =    0.0                 !
 ! D9    D(1,2,4,16)          -157.0227         -DE/DX =    0.0                 !
 ! D10   D(3,2,4,5)            153.7432         -DE/DX =    0.0                 !
 ! D11   D(3,2,4,15)           -87.7581         -DE/DX =    0.0                 !
 ! D12   D(3,2,4,16)            25.189          -DE/DX =    0.0                 !
 ! D13   D(2,4,5,6)            171.5703         -DE/DX =   -0.0001              !
 ! D14   D(2,4,5,17)           -68.8443         -DE/DX =    0.0001              !
 ! D15   D(15,4,5,6)            55.0807         -DE/DX =   -0.0001              !
 ! D16   D(15,4,5,17)          174.6661         -DE/DX =    0.0001              !
 ! D17   D(16,4,5,6)           -64.0947         -DE/DX =   -0.0001              !
 ! D18   D(16,4,5,17)           55.4907         -DE/DX =    0.0001              !
 ! D19   D(4,5,6,7)            126.4432         -DE/DX =    0.0007              !
 ! D20   D(4,5,6,18)          -112.2742         -DE/DX =    0.0003              !
 ! D21   D(4,5,6,19)             6.3963         -DE/DX =    0.0003              !
 ! D22   D(17,5,6,7)             4.4759         -DE/DX =    0.0003              !
 ! D23   D(17,5,6,18)          125.7585         -DE/DX =    0.0                 !
 ! D24   D(17,5,6,19)         -115.571          -DE/DX =    0.0                 !
 ! D25   D(5,6,7,8)             -4.4618         -DE/DX =   -0.0001              !
 ! D26   D(5,6,7,9)            175.0646         -DE/DX =   -0.0001              !
 ! D27   D(18,6,7,8)          -126.6329         -DE/DX =    0.0001              !
 ! D28   D(18,6,7,9)            52.8934         -DE/DX =    0.0001              !
 ! D29   D(19,6,7,8)           117.9259         -DE/DX =    0.0001              !
 ! D30   D(19,6,7,9)           -62.5478         -DE/DX =    0.0001              !
 ! D31   D(6,7,9,10)             3.707          -DE/DX =    0.0                 !
 ! D32   D(6,7,9,11)           179.3743         -DE/DX =    0.0                 !
 ! D33   D(8,7,9,10)          -176.7798         -DE/DX =    0.0                 !
 ! D34   D(8,7,9,11)            -1.1125         -DE/DX =    0.0                 !
 ! D35   D(7,9,10,20)          113.6083         -DE/DX =    0.0                 !
 ! D36   D(7,9,10,21)         -127.1306         -DE/DX =    0.0                 !
 ! D37   D(7,9,10,22)           -7.1239         -DE/DX =    0.0                 !
 ! D38   D(11,9,10,20)         -62.2017         -DE/DX =    0.0                 !
 ! D39   D(11,9,10,21)          57.0594         -DE/DX =    0.0                 !
 ! D40   D(11,9,10,22)         177.0661         -DE/DX =    0.0                 !
 ! D41   D(7,9,11,23)            4.2806         -DE/DX =    0.0                 !
 ! D42   D(7,9,11,24)          124.4322         -DE/DX =    0.0                 !
 ! D43   D(7,9,11,25)         -115.7745         -DE/DX =    0.0                 !
 ! D44   D(10,9,11,23)        -179.6393         -DE/DX =    0.0                 !
 ! D45   D(10,9,11,24)         -59.4877         -DE/DX =    0.0                 !
 ! D46   D(10,9,11,25)          60.3056         -DE/DX =    0.0                 !
 --------------------------------------------------------------------------------
 Iteration  1 RMS(Cart)=  0.04229387 RMS(Int)=  0.01262176
 Iteration  2 RMS(Cart)=  0.00096456 RMS(Int)=  0.01261093
 Iteration  3 RMS(Cart)=  0.00000265 RMS(Int)=  0.01261093
 Iteration  4 RMS(Cart)=  0.00000004 RMS(Int)=  0.01261093
 Iteration  1 RMS(Cart)=  0.02455966 RMS(Int)=  0.00738497
 Iteration  2 RMS(Cart)=  0.01432550 RMS(Int)=  0.00823353
 Iteration  3 RMS(Cart)=  0.00837600 RMS(Int)=  0.00937263
 Iteration  4 RMS(Cart)=  0.00490523 RMS(Int)=  0.01018964
 Iteration  5 RMS(Cart)=  0.00287554 RMS(Int)=  0.01070784
 Iteration  6 RMS(Cart)=  0.00168673 RMS(Int)=  0.01102328
 Iteration  7 RMS(Cart)=  0.00098976 RMS(Int)=  0.01121198
 Iteration  8 RMS(Cart)=  0.00058091 RMS(Int)=  0.01132390
 Iteration  9 RMS(Cart)=  0.00034099 RMS(Int)=  0.01138999
 Iteration 10 RMS(Cart)=  0.00020018 RMS(Int)=  0.01142892
 Iteration 11 RMS(Cart)=  0.00011752 RMS(Int)=  0.01145182
 Iteration 12 RMS(Cart)=  0.00006899 RMS(Int)=  0.01146528
 Iteration 13 RMS(Cart)=  0.00004050 RMS(Int)=  0.01147319
 Iteration 14 RMS(Cart)=  0.00002378 RMS(Int)=  0.01147783
 Iteration 15 RMS(Cart)=  0.00001396 RMS(Int)=  0.01148056
 Iteration 16 RMS(Cart)=  0.00000820 RMS(Int)=  0.01148216
 Iteration 17 RMS(Cart)=  0.00000481 RMS(Int)=  0.01148310
 Iteration 18 RMS(Cart)=  0.00000283 RMS(Int)=  0.01148365
 Iteration 19 RMS(Cart)=  0.00000166 RMS(Int)=  0.01148397
 Iteration 20 RMS(Cart)=  0.00000097 RMS(Int)=  0.01148416
 GradGradGradGradGradGradGradGradGradGradGradGradGradGradGradGradGradGrad

                          Input orientation:                          
 ---------------------------------------------------------------------
 Center     Atomic      Atomic             Coordinates (Angstroms)
 Number     Number       Type             X           Y           Z
 ---------------------------------------------------------------------
      1          6           0       -3.630979   -0.595296    1.060046
      2          6           0       -3.362011   -0.089441   -0.342079
      3          8           0       -4.231798    0.404527   -1.035381
      4          6           0       -1.947976   -0.263762   -0.904314
      5          7           0       -0.911407   -0.275534    0.118864
      6          6           0        0.416822   -0.655175   -0.341536
      7          6           0        1.479298    0.281662    0.266016
      8          8           0        1.125105    1.259580    0.923254
      9          7           0        2.796777   -0.019398    0.056561
     10          6           0        3.285958   -1.116826   -0.761264
     11          6           0        3.822531    0.856815    0.608454
     12          1           0       -4.701274   -0.540375    1.264212
     13          1           0       -3.081015    0.006365    1.792020
     14          1           0       -3.265303   -1.620677    1.177896
     15          1           0       -1.957765   -1.244559   -1.404526
     16          1           0       -1.816416    0.490202   -1.699364
     17          1           0       -0.783625    0.619455    0.592514
     18          1           0        0.678127   -1.659814    0.021494
     19          1           0        0.479586   -0.693477   -1.440394
     20          1           0        3.814905   -0.737874   -1.646079
     21          1           0        3.989326   -1.732177   -0.186627
     22          1           0        2.474706   -1.758721   -1.098248
     23          1           0        3.336344    1.628651    1.201746
     24          1           0        4.510680    0.283350    1.241181
     25          1           0        4.403131    1.326777   -0.195605
 ---------------------------------------------------------------------
                    Distance matrix (angstroms):
                    1          2          3          4          5
     1  C    0.000000
     2  C    1.514657   0.000000
     3  O    2.398216   1.217046   0.000000
     4  C    2.607896   1.531663   2.383197   0.000000
     5  N    2.895539   2.500512   3.580469   1.456540   0.000000
     6  C    4.284007   3.820947   4.818097   2.462152   1.456121
     7  C    5.245424   4.893442   5.858784   3.662427   2.459185
     8  O    5.106821   4.853363   5.767476   3.886439   2.674135
     9  N    6.531056   6.172074   7.125512   4.847234   3.717542
    10  C    7.171693   6.739935   7.675044   5.304927   4.370385
    11  C    7.607061   7.308663   8.232798   6.069836   4.892042
    12  H    1.090977   2.139424   2.530094   3.515632   3.968004
    13  H    1.095556   2.154649   3.078478   2.937169   2.754291
    14  H    1.094995   2.159712   3.151850   2.812857   2.910633
    15  H    3.048819   2.105943   2.833192   1.101031   2.086766
    16  H    3.476390   2.137071   2.506448   1.103574   2.170563
    17  H    3.130756   2.832679   3.819179   2.091956   1.020626
    18  H    4.558529   4.349824   5.430087   3.114883   2.110054
    19  H    4.812337   4.040919   4.854564   2.522914   2.130921
    20  H    7.923675   7.323182   8.150304   5.829734   5.066241
    21  H    7.804854   7.534248   8.536554   6.158155   5.121749
    22  H    6.579603   6.117642   7.047041   4.672540   3.891910
    23  H    7.315026   7.085421   7.986237   5.995061   4.779324
    24  H    8.190937   8.038964   9.034840   6.827644   5.565157
    25  H    8.355714   7.894590   8.724549   6.585487   5.559730
                    6          7          8          9         10
     6  C    0.000000
     7  C    1.541311   0.000000
     8  O    2.401593   1.230341   0.000000
     9  N    2.495372   1.367574   2.276275   0.000000
    10  C    2.936194   2.505013   3.626871   1.453439   0.000000
    11  C    3.845445   2.436966   2.745437   1.457568   2.461563
    12  H    5.365306   6.314397   6.107600   7.612529   8.260189
    13  H    4.150248   4.816735   4.474008   6.128697   6.951198
    14  H    4.098648   5.192462   5.257034   6.369482   6.850783
    15  H    2.667580   4.115029   4.603625   5.122643   5.284575
    16  H    2.853583   3.842907   4.015297   4.962309   5.431094
    17  H    1.984491   2.311174   2.040196   3.676229   4.626974
    18  H    1.099713   2.114473   3.088013   2.679715   2.776388
    19  H    1.101315   2.205030   3.133363   2.839830   2.918247
    20  H    3.640829   3.186003   4.222122   2.109923   1.098311
    21  H    3.734530   3.249719   4.287914   2.101172   1.097083
    22  H    2.454651   2.648625   3.875311   2.112477   1.087988
    23  H    4.015120   2.477617   2.259059   2.078135   3.375439
    24  H    4.488373   3.184372   3.537827   2.105337   2.733170
    25  H    4.454221   3.139133   3.464364   2.110959   2.745767
                   11         12         13         14         15
    11  C    0.000000
    12  H    8.662413   0.000000
    13  H    7.055709   1.789621   0.000000
    14  H    7.529914   1.799031   1.748821   0.000000
    15  H    6.471451   3.891641   3.611704   2.918908   0.000000
    16  H    6.103945   4.262309   3.744739   3.851455   1.765306
    17  H    4.612295   4.140574   2.663211   3.394052   2.973436
    18  H    4.070039   5.633422   4.476836   4.109676   3.025541
    19  H    4.216214   5.846336   4.859646   4.662546   2.499132
    20  H    2.761523   9.001894   7.741325   7.673559   5.799896
    21  H    2.713457   8.891110   7.545018   7.382682   6.090069
    22  H    3.401543   7.652468   6.506551   6.176373   4.472691
    23  H    1.088166   8.325375   6.645504   7.358019   6.563199
    24  H    1.096702   9.248737   7.616690   8.005949   7.153674
    25  H    1.097485   9.407843   7.855354   8.329398   6.966653
                   16         17         18         19         20
    16  H    0.000000
    17  H    2.517154   0.000000
    18  H    3.715732   2.767282   0.000000
    19  H    2.596110   2.729873   1.763616   0.000000
    20  H    5.763920   5.291513   3.670170   3.341949   0.000000
    21  H    6.397966   5.377573   3.318522   3.868992   1.774559
    22  H    4.881876   4.373913   2.119269   2.287424   1.771548
    23  H    6.021913   4.285298   4.390115   4.531473   3.733573
    24  H    6.980095   5.344474   4.466764   4.939104   3.140584
    25  H    6.453209   5.293758   4.779384   4.585317   2.590881
                   21         22         23         24         25
    21  H    0.000000
    22  H    1.768002   0.000000
    23  H    3.694473   4.184099   0.000000
    24  H    2.524439   3.713243   1.786185   0.000000
    25  H    3.086829   3.748851   1.783747   1.778950   0.000000
 Stoichiometry    C7H14N2O2
 Framework group  C1[X(C7H14N2O2)]
 Deg. of freedom    69
 Full point group                 C1      NOp   1
 Largest Abelian subgroup         C1      NOp   1
 Largest concise Abelian subgroup C1      NOp   1
                         Standard orientation:                         
 ---------------------------------------------------------------------
 Center     Atomic      Atomic             Coordinates (Angstroms)
 Number     Number       Type             X           Y           Z
 ---------------------------------------------------------------------
      1          6           0       -3.560180   -0.631444   -1.154139
      2          6           0       -3.334851    0.077590    0.165211
      3          8           0       -4.216335    0.208987    0.994019
      4          6           0       -1.953226    0.687482    0.420426
      5          7           0       -0.874441   -0.002524   -0.273565
      6          6           0        0.418872    0.665635   -0.239020
      7          6           0        1.538077   -0.354438    0.048160
      8          8           0        1.246320   -1.516733    0.326886
      9          7           0        2.834188    0.075107   -0.028291
     10          6           0        3.249695    1.443712   -0.286666
     11          6           0        3.912244   -0.865134    0.251434
     12          1           0       -4.618146   -0.877906   -1.255112
     13          1           0       -2.958819   -1.546028   -1.200430
     14          1           0       -3.225105   -0.008480   -1.989994
     15          1           0       -2.018214    1.715831    0.032427
     16          1           0       -1.830371    0.774123    1.513712
     17          1           0       -0.695727   -0.947059    0.069351
     18          1           0        0.661035    1.088001   -1.225089
     19          1           0        0.432764    1.505636    0.473090
     20          1           0        3.752603    1.870727    0.591416
     21          1           0        3.955728    1.472377   -1.125883
     22          1           0        2.403126    2.079551   -0.537160
     23          1           0        3.478871   -1.848870    0.420422
     24          1           0        4.607026   -0.908346   -0.596012
     25          1           0        4.473334   -0.556088    1.142580
 ---------------------------------------------------------------------
 Rotational constants (GHZ):      2.9968650      0.3895252      0.3721846
 Standard basis: 6-31G(d,p) (6D, 7F)
 There are   235 symmetry adapted basis functions of A   symmetry.
 Integral buffers will be    131072 words long.
 Raffenetti 2 integral format.
 Two-electron integral symmetry is turned on.
   235 basis functions,   406 primitive gaussians,   235 cartesian basis functions
    43 alpha electrons       43 beta electrons
       nuclear repulsion energy       619.3673331935 Hartrees.
 NAtoms=   25 NActive=   25 NUniq=   25 SFac= 1.00D+00 NAtFMM=   60 NAOKFM=F Big=F
 One-electron integrals computed using PRISM.
 NBasis=   235 RedAO= T  NBF=   235
 NBsUse=   235 1.00D-06 NBFU=   235
 Initial guess read from the read-write file.
 B after Tr=     0.000000    0.000000    0.000000
         Rot=    1.000000    0.000000    0.000000    0.000000 Ang=   0.00 deg.
 Initial guess orbital symmetries:
       Occupied  (A) (A) (A) (A) (A) (A) (A) (A) (A) (A) (A) (A)
                 (A) (A) (A) (A) (A) (A) (A) (A) (A) (A) (A) (A)
                 (A) (A) (A) (A) (A) (A) (A) (A) (A) (A) (A) (A)
                 (A) (A) (A) (A) (A) (A) (A)
       Virtual   (A) (A) (A) (A) (A) (A) (A) (A) (A) (A) (A) (A)
                 (A) (A) (A) (A) (A) (A) (A) (A) (A) (A) (A) (A)
                 (A) (A) (A) (A) (A) (A) (A) (A) (A) (A) (A) (A)
                 (A) (A) (A) (A) (A) (A) (A) (A) (A) (A) (A) (A)
                 (A) (A) (A) (A) (A) (A) (A) (A) (A) (A) (A) (A)
                 (A) (A) (A) (A) (A) (A) (A) (A) (A) (A) (A) (A)
                 (A) (A) (A) (A) (A) (A) (A) (A) (A) (A) (A) (A)
                 (A) (A) (A) (A) (A) (A) (A) (A) (A) (A) (A) (A)
                 (A) (A) (A) (A) (A) (A) (A) (A) (A) (A) (A) (A)
                 (A) (A) (A) (A) (A) (A) (A) (A) (A) (A) (A) (A)
                 (A) (A) (A) (A) (A) (A) (A) (A) (A) (A) (A) (A)
                 (A) (A) (A) (A) (A) (A) (A) (A) (A) (A) (A) (A)
                 (A) (A) (A) (A) (A) (A) (A) (A) (A) (A) (A) (A)
                 (A) (A) (A) (A) (A) (A) (A) (A) (A) (A) (A) (A)
                 (A) (A) (A) (A) (A) (A) (A) (A) (A) (A) (A) (A)
                 (A) (A) (A) (A) (A) (A) (A) (A) (A) (A) (A) (A)
 Harris functional with IExCor=  402 diagonalized for initial guess.
 ExpMin= 1.61D-01 ExpMax= 5.48D+03 ExpMxC= 8.25D+02 IAcc=1 IRadAn=         1 AccDes= 0.00D+00
 HarFok:  IExCor=  402 AccDes= 0.00D+00 IRadAn=         1 IDoV= 1
 ScaDFX=  1.000000  1.000000  1.000000  1.000000
 FoFCou: FMM=F IPFlag=           0 FMFlag=      100000 FMFlg1=           0
         NFxFlg=           0 DoJE=T BraDBF=F KetDBF=T FulRan=T
         Omega=  0.000000  0.000000  1.000000  0.000000  0.000000 ICntrl=     500 IOpCl=  0
         NMat0=    1 NMatS0=    1 NMatT0=    0 NMatD0=    1 NMtDS0=    0 NMtDT0=    0
         I1Cent=           4 NGrid=           0.
 Petite list used in FoFCou.
 Requested convergence on RMS density matrix=1.00D-08 within 128 cycles.
 Requested convergence on MAX density matrix=1.00D-06.
 Requested convergence on             energy=1.00D-06.
 No special actions if energy rises.
 Keep R1 ints in memory in canonical form, NReq=391463144.
 Integral accuracy reduced to 1.0D-05 until final iterations.
 Initial convergence to 1.0D-05 achieved.  Increase integral accuracy.
 SCF Done:  E(RB3LYP) =  -535.138251845     A.U. after   14 cycles
             Convg  =    0.2836D-08             -V/T =  2.0094
 Calling FoFJK, ICntrl=      2127 FMM=F ISym2X=0 I1Cent= 0 IOpClX= 0 NMat=1 NMatS=1 NMatT=0.
