 Entering Gaussian System, Link 0=/data/opt/apps/g09-C01/g09
 Initial command:
 /data/opt/apps/g09-C01/l1.exe /tmp/g09-tuu61186-5750432e85c7f8a2x/Gau-575060.inp -scrdir=/tmp/g09-tuu61186-5750432e85c7f8a2x/
 Entering Link 1 = /data/opt/apps/g09-C01/l1.exe PID=    575061.
  
 Copyright (c) 1988,1990,1992,1993,1995,1998,2003,2009,2011,
            Gaussian, Inc.  All Rights Reserved.
  
 This is part of the Gaussian(R) 09 program.  It is based on
 the Gaussian(R) 03 system (copyright 2003, Gaussian, Inc.),
 the Gaussian(R) 98 system (copyright 1998, Gaussian, Inc.),
 the Gaussian(R) 94 system (copyright 1995, Gaussian, Inc.),
 the Gaussian 92(TM) system (copyright 1992, Gaussian, Inc.),
 the Gaussian 90(TM) system (copyright 1990, Gaussian, Inc.),
 the Gaussian 88(TM) system (copyright 1988, Gaussian, Inc.),
 the Gaussian 86(TM) system (copyright 1986, Carnegie Mellon
 University), and the Gaussian 82(TM) system (copyright 1983,
 Carnegie Mellon University). Gaussian is a federally registered
 trademark of Gaussian, Inc.
  
 This software contains proprietary and confidential information,
 including trade secrets, belonging to Gaussian, Inc.
  
 This software is provided under written license and may be
 used, copied, transmitted, or stored only in accord with that
 written license.
  
 The following legend is applicable only to US Government
 contracts under FAR:
  
                    RESTRICTED RIGHTS LEGEND
  
 Use, reproduction and disclosure by the US Government is
 subject to restrictions as set forth in subparagraphs (a)
 and (c) of the Commercial Computer Software - Restricted
 Rights clause in FAR 52.227-19.
  
 Gaussian, Inc.
 340 Quinnipiac St., Bldg. 40, Wallingford CT 06492
  
  
 ---------------------------------------------------------------
 Warning -- This program may not be used in any manner that
 competes with the business of Gaussian, Inc. or will provide
 assistance to any competitor of Gaussian, Inc.  The licensee
 of this program is prohibited from giving any competitor of
 Gaussian, Inc. access to this program.  By using this program,
 the user acknowledges that Gaussian, Inc. is engaged in the
 business of creating and licensing software in the field of
 computational chemistry and represents and warrants to the
 licensee that it is not a competitor of Gaussian, Inc. and that
 it will not use this program in any manner prohibited above.
 ---------------------------------------------------------------
  

 Cite this work as:
 Gaussian 09, Revision C.01,
 M. J. Frisch, G. W. Trucks, H. B. Schlegel, G. E. Scuseria, 
 M. A. Robb, J. R. Cheeseman, G. Scalmani, V. Barone, B. Mennucci, 
 G. A. Petersson, H. Nakatsuji, M. Caricato, X. Li, H. P. Hratchian, 
 A. F. Izmaylov, J. Bloino, G. Zheng, J. L. Sonnenberg, M. Hada, 
 M. Ehara, K. Toyota, R. Fukuda, J. Hasegawa, M. Ishida, T. Nakajima, 
 Y. Honda, O. Kitao, H. Nakai, T. Vreven, J. A. Montgomery, Jr., 
 J. E. Peralta, F. Ogliaro, M. Bearpark, J. J. Heyd, E. Brothers, 
 K. N. Kudin, V. N. Staroverov, T. Keith, R. Kobayashi, J. Normand, 
 K. Raghavachari, A. Rendell, J. C. Burant, S. S. Iyengar, J. Tomasi, 
 M. Cossi, N. Rega, J. M. Millam, M. Klene, J. E. Knox, J. B. Cross, 
 V. Bakken, C. Adamo, J. Jaramillo, R. Gomperts, R. E. Stratmann, 
 O. Yazyev, A. J. Austin, R. Cammi, C. Pomelli, J. W. Ochterski, 
 R. L. Martin, K. Morokuma, V. G. Zakrzewski, G. A. Voth, 
 P. Salvador, J. J. Dannenberg, S. Dapprich, A. D. Daniels, 
 O. Farkas, J. B. Foresman, J. V. Ortiz, J. Cioslowski, 
 and D. J. Fox, Gaussian, Inc., Wallingford CT, 2010.
 
 ******************************************
 Gaussian 09:  EM64L-G09RevC.01 23-Sep-2011
                 9-Apr-2026 
 ******************************************
 %nprocshared=8
 Will use up to    8 processors via shared memory.
 %mem=16GB
 -----------------------------------
 # opt=modredundant b3lyp/6-31g(d,p)
 -----------------------------------
 1/14=-1,18=120,19=15,26=3,38=1/1,3;
 2/9=110,12=2,17=6,18=5,40=1/2;
 3/5=1,6=6,7=101,11=2,16=1,25=1,30=1,71=1,74=-5/1,2,3;
 4//1;
 5/5=2,38=5/2;
 6/7=2,8=2,9=2,10=2,28=1/1;
 7//1,2,3,16;
 1/14=-1,18=20,19=15/3(2);
 2/9=110/2;
 99//99;
 2/9=110/2;
 3/5=1,6=6,7=101,11=2,16=1,25=1,30=1,71=1,74=-5/1,2,3;
 4/5=5,16=3/1;
 5/5=2,38=5/2;
 7//1,2,3,16;
 1/14=-1,18=20,19=15/3(-5);
 2/9=110/2;
 6/7=2,8=2,9=2,10=2,19=2,28=1/1;
 99/9=1/99;
 ---------------
 QM dihedral opt
 ---------------
 Charge =  0 Multiplicity = 1
 Symbolic Z-Matrix:
 C                     0.70645  -2.74281  -0.00609 
 C                     1.8104   -1.76208   0.35536 
 O                     2.89272  -2.17414   0.77668 
 N                     1.58413  -0.41715   0.19433 
 C                     0.30275   0.1377   -0.2882 
 C                    -0.65905   0.52427   0.87482 
 O                    -2.00368   0.60632   0.40369 
 C                    -2.69328  -0.63015   0.31951 
 C                    -4.15842  -0.38457   0.03622 
 C                    -4.90077  -1.33124  -0.6782 
 C                    -6.26591  -1.14541  -0.89862 
 C                    -6.90219  -0.00165  -0.41454 
 C                    -6.16529   0.95119   0.2913 
 C                    -4.80257   0.76004   0.51911 
 C                    -0.23557   1.94678   1.24847 
 C                     0.14787   2.61839  -0.09447 
 C                     0.43598   1.45503  -1.08959 
 C                     2.72739   0.43312   0.53221 
 C                     3.8346    0.3722   -0.53953 
 O                     3.53759   0.58765  -1.71483 
 N                     5.12236   0.18219  -0.12832 
 C                     5.5038   -0.30645   1.19626 
 C                     6.19053   0.30605  -1.11357 
 H                     1.05845  -3.73661   0.26841 
 H                     0.49966  -2.72767  -1.08159 
 H                    -0.23004  -2.53408   0.51871 
 H                    -0.15596  -0.62951  -0.91133 
 H                    -0.59635  -0.18265   1.71615 
 H                    -2.27174  -1.27697  -0.46563 
 H                    -2.58245  -1.177     1.27324 
 H                    -4.40773  -2.21883  -1.06815 
 H                    -6.82878  -1.88841  -1.45628 
 H                    -7.96332   0.14867  -0.59074 
 H                    -6.65301   1.84675   0.6659 
 H                    -4.22397   1.50129   1.05924 
 H                    -1.03944   2.46259   1.77992 
 H                     0.62433   1.89682   1.92518 
 H                    -0.67624   3.23589  -0.46074 
 H                     1.00965   3.28374   0.02189 
 H                     1.40949   1.51421  -1.57989 
 H                    -0.32495   1.44632  -1.87382 
 H                     2.40067   1.47269   0.55322 
 H                     3.08374   0.17564   1.52889 
 H                     4.76997  -1.02654   1.5589 
 H                     6.46116  -0.82609   1.10647 
 H                     5.63272   0.50884   1.92031 
 H                     6.60418  -0.67719  -1.37125 
 H                     5.78317   0.7631   -2.01345 
 H                     6.99802   0.92864  -0.71249 
 
 The following ModRedundant input section has been read:
 D      19      18      21       4 S  36 10.000                                

 GradGradGradGradGradGradGradGradGradGradGradGradGradGradGradGradGradGrad
 Berny optimization.
 Initialization pass.
                           ----------------------------
                           !    Initial Parameters    !
                           ! (Angstroms and Degrees)  !
 --------------------------                            --------------------------
 ! Name  Definition              Value          Derivative Info.                !
 --------------------------------------------------------------------------------
 ! R1    R(1,2)                  1.5203         estimate D2E/DX2                !
 ! R2    R(1,24)                 1.0894         estimate D2E/DX2                !
 ! R3    R(1,25)                 1.0953         estimate D2E/DX2                !
 ! R4    R(1,26)                 1.0936         estimate D2E/DX2                !
 ! R5    R(2,3)                  1.2324         estimate D2E/DX2                !
 ! R6    R(2,4)                  1.3733         estimate D2E/DX2                !
 ! R7    R(4,5)                  1.4774         estimate D2E/DX2                !
 ! R8    R(4,18)                 1.4643         estimate D2E/DX2                !
 ! R9    R(5,6)                  1.5579         estimate D2E/DX2                !
 ! R10   R(5,17)                 1.5477         estimate D2E/DX2                !
 ! R11   R(5,27)                 1.0896         estimate D2E/DX2                !
 ! R12   R(6,7)                  1.4271         estimate D2E/DX2                !
 ! R13   R(6,15)                 1.5305         estimate D2E/DX2                !
 ! R14   R(6,28)                 1.1007         estimate D2E/DX2                !
 ! R15   R(7,8)                  1.4183         estimate D2E/DX2                !
 ! R16   R(8,9)                  1.5123         estimate D2E/DX2                !
 ! R17   R(8,29)                 1.1011         estimate D2E/DX2                !
 ! R18   R(8,30)                 1.105          estimate D2E/DX2                !
 ! R19   R(9,10)                 1.3992         estimate D2E/DX2                !
 ! R20   R(9,14)                 1.3994         estimate D2E/DX2                !
 ! R21   R(10,11)                1.3953         estimate D2E/DX2                !
 ! R22   R(10,31)                1.0876         estimate D2E/DX2                !
 ! R23   R(11,12)                1.3955         estimate D2E/DX2                !
 ! R24   R(11,32)                1.0862         estimate D2E/DX2                !
 ! R25   R(12,13)                1.3961         estimate D2E/DX2                !
 ! R26   R(12,33)                1.0861         estimate D2E/DX2                !
 ! R27   R(13,14)                1.3948         estimate D2E/DX2                !
 ! R28   R(13,34)                1.0864         estimate D2E/DX2                !
 ! R29   R(14,35)                1.0844         estimate D2E/DX2                !
 ! R30   R(15,16)                1.5497         estimate D2E/DX2                !
 ! R31   R(15,36)                1.093          estimate D2E/DX2                !
 ! R32   R(15,37)                1.0954         estimate D2E/DX2                !
 ! R33   R(16,17)                1.5578         estimate D2E/DX2                !
 ! R34   R(16,38)                1.093          estimate D2E/DX2                !
 ! R35   R(16,39)                1.0949         estimate D2E/DX2                !
 ! R36   R(17,40)                1.0916         estimate D2E/DX2                !
 ! R37   R(17,41)                1.0928         estimate D2E/DX2                !
 ! R38   R(18,19)                1.5422         estimate D2E/DX2                !
 ! R39   R(18,42)                1.0899         estimate D2E/DX2                !
 ! R40   R(18,43)                1.0893         estimate D2E/DX2                !
 ! R41   R(19,20)                1.2312         estimate D2E/DX2                !
 ! R42   R(19,21)                1.3651         estimate D2E/DX2                !
 ! R43   R(21,22)                1.4625         estimate D2E/DX2                !
 ! R44   R(21,23)                1.4584         estimate D2E/DX2                !
 ! R45   R(22,44)                1.0902         estimate D2E/DX2                !
 ! R46   R(22,45)                1.093          estimate D2E/DX2                !
 ! R47   R(22,46)                1.098          estimate D2E/DX2                !
 ! R48   R(23,47)                1.0974         estimate D2E/DX2                !
 ! R49   R(23,48)                1.0884         estimate D2E/DX2                !
 ! R50   R(23,49)                1.0957         estimate D2E/DX2                !
 ! A1    A(2,1,24)             107.0941         estimate D2E/DX2                !
 ! A2    A(2,1,25)             111.201          estimate D2E/DX2                !
 ! A3    A(2,1,26)             112.6193         estimate D2E/DX2                !
 ! A4    A(24,1,25)            108.7243         estimate D2E/DX2                !
 ! A5    A(24,1,26)            109.261          estimate D2E/DX2                !
 ! A6    A(25,1,26)            107.8721         estimate D2E/DX2                !
 ! A7    A(1,2,3)              120.2209         estimate D2E/DX2                !
 ! A8    A(1,2,4)              118.9637         estimate D2E/DX2                !
 ! A9    A(3,2,4)              120.8134         estimate D2E/DX2                !
 ! A10   A(2,4,5)              123.2986         estimate D2E/DX2                !
 ! A11   A(2,4,18)             114.3918         estimate D2E/DX2                !
 ! A12   A(5,4,18)             122.3082         estimate D2E/DX2                !
 ! A13   A(4,5,6)              112.6334         estimate D2E/DX2                !
 ! A14   A(4,5,17)             114.4635         estimate D2E/DX2                !
 ! A15   A(4,5,27)             106.7068         estimate D2E/DX2                !
 ! A16   A(6,5,17)             103.2082         estimate D2E/DX2                !
 ! A17   A(6,5,27)             109.9822         estimate D2E/DX2                !
 ! A18   A(17,5,27)            109.8419         estimate D2E/DX2                !
 ! A19   A(5,6,7)              110.4565         estimate D2E/DX2                !
 ! A20   A(5,6,15)             104.0078         estimate D2E/DX2                !
 ! A21   A(5,6,28)             112.091          estimate D2E/DX2                !
 ! A22   A(7,6,15)             106.7298         estimate D2E/DX2                !
 ! A23   A(7,6,28)             110.0556         estimate D2E/DX2                !
 ! A24   A(15,6,28)            113.2387         estimate D2E/DX2                !
 ! A25   A(6,7,8)              115.3147         estimate D2E/DX2                !
 ! A26   A(7,8,9)              109.9132         estimate D2E/DX2                !
 ! A27   A(7,8,29)             111.6103         estimate D2E/DX2                !
 ! A28   A(7,8,30)             109.3574         estimate D2E/DX2                !
 ! A29   A(9,8,29)             109.433          estimate D2E/DX2                !
 ! A30   A(9,8,30)             109.8292         estimate D2E/DX2                !
 ! A31   A(29,8,30)            106.6382         estimate D2E/DX2                !
 ! A32   A(8,9,10)             119.9853         estimate D2E/DX2                !
 ! A33   A(8,9,14)             120.9391         estimate D2E/DX2                !
 ! A34   A(10,9,14)            119.0381         estimate D2E/DX2                !
 ! A35   A(9,10,11)            120.6417         estimate D2E/DX2                !
 ! A36   A(9,10,31)            119.6502         estimate D2E/DX2                !
 ! A37   A(11,10,31)           119.7078         estimate D2E/DX2                !
 ! A38   A(10,11,12)           120.0317         estimate D2E/DX2                !
 ! A39   A(10,11,32)           119.8026         estimate D2E/DX2                !
 ! A40   A(12,11,32)           120.1629         estimate D2E/DX2                !
 ! A41   A(11,12,13)           119.6103         estimate D2E/DX2                !
 ! A42   A(11,12,33)           120.1743         estimate D2E/DX2                !
 ! A43   A(13,12,33)           120.2146         estimate D2E/DX2                !
 ! A44   A(12,13,14)           120.3135         estimate D2E/DX2                !
 ! A45   A(12,13,34)           119.9991         estimate D2E/DX2                !
 ! A46   A(14,13,34)           119.6874         estimate D2E/DX2                !
 ! A47   A(9,14,13)            120.3618         estimate D2E/DX2                !
 ! A48   A(9,14,35)            119.0376         estimate D2E/DX2                !
 ! A49   A(13,14,35)           120.5945         estimate D2E/DX2                !
 ! A50   A(6,15,16)            105.052          estimate D2E/DX2                !
 ! A51   A(6,15,36)            110.7206         estimate D2E/DX2                !
 ! A52   A(6,15,37)            109.0043         estimate D2E/DX2                !
 ! A53   A(16,15,36)           113.5036         estimate D2E/DX2                !
 ! A54   A(16,15,37)           111.155          estimate D2E/DX2                !
 ! A55   A(36,15,37)           107.3672         estimate D2E/DX2                !
 ! A56   A(15,16,17)           106.003          estimate D2E/DX2                !
 ! A57   A(15,16,38)           110.4068         estimate D2E/DX2                !
 ! A58   A(15,16,39)           111.4689         estimate D2E/DX2                !
 ! A59   A(17,16,38)           110.3227         estimate D2E/DX2                !
 ! A60   A(17,16,39)           112.0938         estimate D2E/DX2                !
 ! A61   A(38,16,39)           106.6032         estimate D2E/DX2                !
 ! A62   A(5,17,16)            106.7956         estimate D2E/DX2                !
 ! A63   A(5,17,40)            110.8239         estimate D2E/DX2                !
 ! A64   A(5,17,41)            107.7511         estimate D2E/DX2                !
 ! A65   A(16,17,40)           114.291          estimate D2E/DX2                !
 ! A66   A(16,17,41)           109.6094         estimate D2E/DX2                !
 ! A67   A(40,17,41)           107.4029         estimate D2E/DX2                !
 ! A68   A(4,18,19)            112.164          estimate D2E/DX2                !
 ! A69   A(4,18,42)            108.9202         estimate D2E/DX2                !
 ! A70   A(4,18,43)            109.2246         estimate D2E/DX2                !
 ! A71   A(19,18,42)           105.4441         estimate D2E/DX2                !
 ! A72   A(19,18,43)           113.0572         estimate D2E/DX2                !
 ! A73   A(42,18,43)           107.8107         estimate D2E/DX2                !
 ! A74   A(18,19,20)           118.8999         estimate D2E/DX2                !
 ! A75   A(18,19,21)           118.2577         estimate D2E/DX2                !
 ! A76   A(20,19,21)           122.6464         estimate D2E/DX2                !
 ! A77   A(19,21,22)           124.4285         estimate D2E/DX2                !
 ! A78   A(19,21,23)           118.3977         estimate D2E/DX2                !
 ! A79   A(22,21,23)           116.6932         estimate D2E/DX2                !
 ! A80   A(21,22,44)           110.2673         estimate D2E/DX2                !
 ! A81   A(21,22,45)           108.2342         estimate D2E/DX2                !
 ! A82   A(21,22,46)           112.3212         estimate D2E/DX2                !
 ! A83   A(44,22,45)           107.6309         estimate D2E/DX2                !
 ! A84   A(44,22,46)           110.4951         estimate D2E/DX2                !
 ! A85   A(45,22,46)           107.7195         estimate D2E/DX2                !
 ! A86   A(21,23,47)           111.0146         estimate D2E/DX2                !
 ! A87   A(21,23,48)           108.668          estimate D2E/DX2                !
 ! A88   A(21,23,49)           109.921          estimate D2E/DX2                !
 ! A89   A(47,23,48)           108.8558         estimate D2E/DX2                !
 ! A90   A(47,23,49)           108.4981         estimate D2E/DX2                !
 ! A91   A(48,23,49)           109.8692         estimate D2E/DX2                !
 ! D1    D(24,1,2,3)             4.9319         estimate D2E/DX2                !
 ! D2    D(24,1,2,4)          -175.5863         estimate D2E/DX2                !
 ! D3    D(25,1,2,3)          -113.7221         estimate D2E/DX2                !
 ! D4    D(25,1,2,4)            65.7596         estimate D2E/DX2                !
 ! D5    D(26,1,2,3)           125.065          estimate D2E/DX2                !
 ! D6    D(26,1,2,4)           -55.4533         estimate D2E/DX2                !
 ! D7    D(1,2,4,5)              1.3982         estimate D2E/DX2                !
 ! D8    D(1,2,4,18)          -178.1632         estimate D2E/DX2                !
 ! D9    D(3,2,4,5)           -179.1233         estimate D2E/DX2                !
 ! D10   D(3,2,4,18)             1.3154         estimate D2E/DX2                !
 ! D11   D(2,4,5,6)             93.4123         estimate D2E/DX2                !
 ! D12   D(2,4,5,17)          -149.0931         estimate D2E/DX2                !
 ! D13   D(2,4,5,27)           -27.3649         estimate D2E/DX2                !
 ! D14   D(18,4,5,6)           -87.0603         estimate D2E/DX2                !
 ! D15   D(18,4,5,17)           30.4342         estimate D2E/DX2                !
 ! D16   D(18,4,5,27)          152.1625         estimate D2E/DX2                !
 ! D17   D(2,4,18,19)           74.0845         estimate D2E/DX2                !
 ! D18   D(2,4,18,42)         -169.5817         estimate D2E/DX2                !
 ! D19   D(2,4,18,43)          -52.0674         estimate D2E/DX2                !
 ! D20   D(5,4,18,19)         -105.4817         estimate D2E/DX2                !
 ! D21   D(5,4,18,42)           10.8521         estimate D2E/DX2                !
 ! D22   D(5,4,18,43)          128.3663         estimate D2E/DX2                !
 ! D23   D(4,5,6,7)           -159.9001         estimate D2E/DX2                !
 ! D24   D(4,5,6,15)            85.9135         estimate D2E/DX2                !
 ! D25   D(4,5,6,28)           -36.7789         estimate D2E/DX2                !
 ! D26   D(17,5,6,7)            76.1329         estimate D2E/DX2                !
 ! D27   D(17,5,6,15)          -38.0535         estimate D2E/DX2                !
 ! D28   D(17,5,6,28)         -160.7459         estimate D2E/DX2                !
 ! D29   D(27,5,6,7)           -41.0172         estimate D2E/DX2                !
 ! D30   D(27,5,6,15)         -155.2037         estimate D2E/DX2                !
 ! D31   D(27,5,6,28)           82.104          estimate D2E/DX2                !
 ! D32   D(4,5,17,16)          -97.4234         estimate D2E/DX2                !
 ! D33   D(4,5,17,40)           27.6436         estimate D2E/DX2                !
 ! D34   D(4,5,17,41)          144.8853         estimate D2E/DX2                !
 ! D35   D(6,5,17,16)           25.3322         estimate D2E/DX2                !
 ! D36   D(6,5,17,40)          150.3991         estimate D2E/DX2                !
 ! D37   D(6,5,17,41)          -92.3592         estimate D2E/DX2                !
 ! D38   D(27,5,17,16)         142.5811         estimate D2E/DX2                !
 ! D39   D(27,5,17,40)         -92.3519         estimate D2E/DX2                !
 ! D40   D(27,5,17,41)          24.8898         estimate D2E/DX2                !
 ! D41   D(5,6,7,8)             82.5445         estimate D2E/DX2                !
 ! D42   D(15,6,7,8)          -165.0049         estimate D2E/DX2                !
 ! D43   D(28,6,7,8)           -41.7524         estimate D2E/DX2                !
 ! D44   D(5,6,15,16)           36.3143         estimate D2E/DX2                !
 ! D45   D(5,6,15,36)          159.2203         estimate D2E/DX2                !
 ! D46   D(5,6,15,37)          -82.8869         estimate D2E/DX2                !
 ! D47   D(7,6,15,16)          -80.501          estimate D2E/DX2                !
 ! D48   D(7,6,15,36)           42.405          estimate D2E/DX2                !
 ! D49   D(7,6,15,37)          160.2978         estimate D2E/DX2                !
 ! D50   D(28,6,15,16)         158.249          estimate D2E/DX2                !
 ! D51   D(28,6,15,36)         -78.845          estimate D2E/DX2                !
 ! D52   D(28,6,15,37)          39.0477         estimate D2E/DX2                !
 ! D53   D(6,7,8,9)            170.5182         estimate D2E/DX2                !
 ! D54   D(6,7,8,29)           -67.8729         estimate D2E/DX2                !
 ! D55   D(6,7,8,30)            49.8761         estimate D2E/DX2                !
 ! D56   D(7,8,9,10)           150.3771         estimate D2E/DX2                !
 ! D57   D(7,8,9,14)           -31.8682         estimate D2E/DX2                !
 ! D58   D(29,8,9,10)           27.4766         estimate D2E/DX2                !
 ! D59   D(29,8,9,14)         -154.7687         estimate D2E/DX2                !
 ! D60   D(30,8,9,10)          -89.2658         estimate D2E/DX2                !
 ! D61   D(30,8,9,14)           88.4889         estimate D2E/DX2                !
 ! D62   D(8,9,10,11)          177.2838         estimate D2E/DX2                !
 ! D63   D(8,9,10,31)           -2.9212         estimate D2E/DX2                !
 ! D64   D(14,9,10,11)          -0.5136         estimate D2E/DX2                !
 ! D65   D(14,9,10,31)         179.2815         estimate D2E/DX2                !
 ! D66   D(8,9,14,13)         -177.7088         estimate D2E/DX2                !
 ! D67   D(8,9,14,35)            3.183          estimate D2E/DX2                !
 ! D68   D(10,9,14,13)           0.0669         estimate D2E/DX2                !
 ! D69   D(10,9,14,35)        -179.0413         estimate D2E/DX2                !
 ! D70   D(9,10,11,12)           0.5283         estimate D2E/DX2                !
 ! D71   D(9,10,11,32)         179.9141         estimate D2E/DX2                !
 ! D72   D(31,10,11,12)       -179.2667         estimate D2E/DX2                !
 ! D73   D(31,10,11,32)          0.1191         estimate D2E/DX2                !
 ! D74   D(10,11,12,13)         -0.0908         estimate D2E/DX2                !
 ! D75   D(10,11,12,33)        179.5759         estimate D2E/DX2                !
 ! D76   D(32,11,12,13)       -179.4744         estimate D2E/DX2                !
 ! D77   D(32,11,12,33)          0.1923         estimate D2E/DX2                !
 ! D78   D(11,12,13,14)         -0.3537         estimate D2E/DX2                !
 ! D79   D(11,12,13,34)        179.6388         estimate D2E/DX2                !
 ! D80   D(33,12,13,14)        179.9797         estimate D2E/DX2                !
 ! D81   D(33,12,13,34)         -0.0277         estimate D2E/DX2                !
 ! D82   D(12,13,14,9)           0.3661         estimate D2E/DX2                !
 ! D83   D(12,13,14,35)        179.4603         estimate D2E/DX2                !
 ! D84   D(34,13,14,9)        -179.6265         estimate D2E/DX2                !
 ! D85   D(34,13,14,35)         -0.5323         estimate D2E/DX2                !
 ! D86   D(6,15,16,17)         -20.3237         estimate D2E/DX2                !
 ! D87   D(6,15,16,38)          99.1617         estimate D2E/DX2                !
 ! D88   D(6,15,16,39)        -142.5494         estimate D2E/DX2                !
 ! D89   D(36,15,16,17)       -141.4201         estimate D2E/DX2                !
 ! D90   D(36,15,16,38)        -21.9347         estimate D2E/DX2                !
 ! D91   D(36,15,16,39)         96.3543         estimate D2E/DX2                !
 ! D92   D(37,15,16,17)         97.428          estimate D2E/DX2                !
 ! D93   D(37,15,16,38)       -143.0866         estimate D2E/DX2                !
 ! D94   D(37,15,16,39)        -24.7976         estimate D2E/DX2                !
 ! D95   D(15,16,17,5)          -3.4732         estimate D2E/DX2                !
 ! D96   D(15,16,17,40)       -126.4045         estimate D2E/DX2                !
 ! D97   D(15,16,17,41)        112.9891         estimate D2E/DX2                !
 ! D98   D(38,16,17,5)        -123.0137         estimate D2E/DX2                !
 ! D99   D(38,16,17,40)        114.055          estimate D2E/DX2                !
 ! D100  D(38,16,17,41)         -6.5514         estimate D2E/DX2                !
 ! D101  D(39,16,17,5)         118.3532         estimate D2E/DX2                !
 ! D102  D(39,16,17,40)         -4.5781         estimate D2E/DX2                !
 ! D103  D(39,16,17,41)       -125.1845         estimate D2E/DX2                !
 ! D104  D(4,18,19,20)          52.8783         estimate D2E/DX2                !
 ! D105  D(4,18,19,21)        -132.0721         estimate D2E/DX2                !
 ! D106  D(42,18,19,20)        -65.532          estimate D2E/DX2                !
 ! D107  D(42,18,19,21)        109.5176         estimate D2E/DX2                !
 ! D108  D(43,18,19,20)        176.9208         estimate D2E/DX2                !
 ! D109  D(43,18,19,21)         -8.0296         estimate D2E/DX2                !
 ! D110  D(19,18,21,4)         -62.2166         Scan                            !
 ! D111  D(18,19,21,22)         16.4894         estimate D2E/DX2                !
 ! D112  D(18,19,21,23)       -171.7436         estimate D2E/DX2                !
 ! D113  D(20,19,21,22)       -168.6581         estimate D2E/DX2                !
 ! D114  D(20,19,21,23)          3.1089         estimate D2E/DX2                !
 ! D115  D(19,21,22,44)         34.3674         estimate D2E/DX2                !
 ! D116  D(19,21,22,45)        151.8576         estimate D2E/DX2                !
 ! D117  D(19,21,22,46)        -89.3484         estimate D2E/DX2                !
 ! D118  D(23,21,22,44)       -137.5272         estimate D2E/DX2                !
 ! D119  D(23,21,22,45)        -20.037          estimate D2E/DX2                !
 ! D120  D(23,21,22,46)         98.757          estimate D2E/DX2                !
 ! D121  D(19,21,23,47)       -106.9213         estimate D2E/DX2                !
 ! D122  D(19,21,23,48)         12.7637         estimate D2E/DX2                !
 ! D123  D(19,21,23,49)        133.0302         estimate D2E/DX2                !
 ! D124  D(22,21,23,47)         65.4816         estimate D2E/DX2                !
 ! D125  D(22,21,23,48)       -174.8334         estimate D2E/DX2                !
 ! D126  D(22,21,23,49)        -54.5669         estimate D2E/DX2                !
 --------------------------------------------------------------------------------
 Trust Radius=3.00D-01 FncErr=1.00D-07 GrdErr=1.00D-06
 Number of optimizations in scan=  37
 Number of steps in this run=    277 maximum allowed number of steps=    294.
 GradGradGradGradGradGradGradGradGradGradGradGradGradGradGradGradGradGrad

                          Input orientation:                          
 ---------------------------------------------------------------------
 Center     Atomic      Atomic             Coordinates (Angstroms)
 Number     Number       Type             X           Y           Z
 ---------------------------------------------------------------------
      1          6           0        0.706449   -2.742807   -0.006093
      2          6           0        1.810398   -1.762083    0.355361
      3          8           0        2.892719   -2.174140    0.776675
      4          7           0        1.584131   -0.417145    0.194331
      5          6           0        0.302747    0.137698   -0.288197
      6          6           0       -0.659054    0.524272    0.874815
      7          8           0       -2.003679    0.606319    0.403689
      8          6           0       -2.693282   -0.630151    0.319509
      9          6           0       -4.158422   -0.384566    0.036224
     10          6           0       -4.900773   -1.331237   -0.678196
     11          6           0       -6.265913   -1.145405   -0.898620
     12          6           0       -6.902191   -0.001652   -0.414541
     13          6           0       -6.165292    0.951189    0.291295
     14          6           0       -4.802565    0.760040    0.519113
     15          6           0       -0.235568    1.946780    1.248466
     16          6           0        0.147871    2.618386   -0.094473
     17          6           0        0.435984    1.455026   -1.089587
     18          6           0        2.727390    0.433117    0.532206
     19          6           0        3.834598    0.372195   -0.539530
     20          8           0        3.537591    0.587647   -1.714832
     21          7           0        5.122364    0.182192   -0.128319
     22          6           0        5.503804   -0.306447    1.196257
     23          6           0        6.190530    0.306050   -1.113574
     24          1           0        1.058447   -3.736607    0.268409
     25          1           0        0.499663   -2.727671   -1.081587
     26          1           0       -0.230039   -2.534075    0.518706
     27          1           0       -0.155962   -0.629514   -0.911328
     28          1           0       -0.596351   -0.182654    1.716148
     29          1           0       -2.271736   -1.276974   -0.465627
     30          1           0       -2.582451   -1.176995    1.273243
     31          1           0       -4.407729   -2.218830   -1.068154
     32          1           0       -6.828784   -1.888409   -1.456280
     33          1           0       -7.963318    0.148668   -0.590736
     34          1           0       -6.653013    1.846750    0.665902
     35          1           0       -4.223972    1.501294    1.059245
     36          1           0       -1.039442    2.462590    1.779919
     37          1           0        0.624332    1.896816    1.925178
     38          1           0       -0.676240    3.235889   -0.460742
     39          1           0        1.009652    3.283740    0.021886
     40          1           0        1.409485    1.514213   -1.579889
     41          1           0       -0.324950    1.446324   -1.873823
     42          1           0        2.400673    1.472689    0.553217
     43          1           0        3.083737    0.175635    1.528885
     44          1           0        4.769970   -1.026539    1.558895
     45          1           0        6.461164   -0.826092    1.106465
     46          1           0        5.632720    0.508840    1.920314
     47          1           0        6.604178   -0.677193   -1.371254
     48          1           0        5.783170    0.763102   -2.013452
     49          1           0        6.998024    0.928639   -0.712485
 ---------------------------------------------------------------------
                    Distance matrix (angstroms):
                    1          2          3          4          5
     1  C    0.000000
     2  C    1.520254   0.000000
     3  O    2.390792   1.232362   0.000000
     4  N    2.493832   1.373312   2.266839   0.000000
     5  C    2.922305   2.509252   3.631322   1.477372   0.000000
     6  C    3.648891   3.405208   4.461631   2.526104   1.557914
     7  O    4.327743   4.489860   5.643118   3.736802   2.453143
     8  C    4.015906   4.643887   5.813459   4.284542   3.151998
     9  C    5.406483   6.134021   7.312280   5.744822   4.503336
    10  C    5.821099   6.803946   7.972807   6.606879   5.420931
    11  C    7.208476   8.196314   9.367254   7.959152   6.720585
    12  C    8.097664   8.921943  10.103413   8.518276   7.207393
    13  C    7.807360   8.424819   9.594313   7.869898   6.544701
    14  C    6.549429   7.079491   8.239730   6.502394   5.206080
    15  C    4.945052   4.328889   5.195262   3.163961   2.433905
    16  C    5.390938   4.706894   5.591189   3.370564   2.493056
    17  C    4.343836   3.785060   4.763331   2.543956   1.547686
    18  C    3.802691   2.385592   2.623907   1.464290   2.576670
    19  C    4.446696   3.074631   3.017176   2.495238   3.548539
    20  O    4.693301   3.576329   3.775041   2.910415   3.563981
    21  N    5.298194   3.870823   3.367882   3.603110   4.822473
    22  C    5.513267   4.057984   3.237606   4.047215   5.426957
    23  C    6.371592   5.061670   4.538716   4.842782   5.947737
    24  H    1.089446   2.114648   2.462558   3.361645   3.986368
    25  H    1.095298   2.171453   3.079976   2.853519   2.979695
    26  H    1.093615   2.187701   3.154000   2.806746   2.841360
    27  H    2.455445   2.598805   3.811782   2.072560   1.089642
    28  H    3.349296   3.184145   4.125801   2.669347   2.220000
    29  H    3.351033   4.192037   5.387004   4.005317   2.942914
    30  H    3.860742   4.525700   5.587340   4.370564   3.534244
    31  H    5.249509   6.395320   7.530069   6.382971   5.324485
    32  H    7.720931   8.827993   9.978745   8.698636   7.505216
    33  H    9.157909  10.003579  11.185651   9.596367   8.271607
    34  H    8.699270   9.205946  10.358611   8.555591   7.225909
    35  H    6.592146   6.896282   8.014733   6.177584   4.915911
    36  H    5.773572   5.291391   6.161790   4.205960   3.388761
    37  H    5.026197   4.154350   4.799721   3.044907   2.845513
    38  H    6.153319   5.641730   6.598264   4.345464   3.253763
    39  H    6.034234   5.119837   5.822723   3.749175   3.239359
    40  H    4.592746   3.826230   4.621399   2.628403   2.188180
    41  H    4.701172   4.452286   5.521439   3.375554   2.149585
    42  H    4.577513   3.294134   3.686652   2.089740   2.625161
    43  H    4.065090   2.598712   2.474621   2.093141   3.322218
    44  H    4.680488   3.278504   2.335150   3.518944   4.972251
    45  H    6.166711   4.803109   3.828811   4.978421   6.387493
    46  H    6.209058   4.713419   4.001737   4.497504   5.781339
    47  H    6.396377   5.209464   4.541957   5.264936   6.445548
    48  H    6.487988   5.269796   4.976636   4.888683   5.779504
    49  H    7.318635   5.940685   5.357085   5.651875   6.755172
                    6          7          8          9         10
     6  C    0.000000
     7  O    1.427133   0.000000
     8  C    2.403984   1.418272   0.000000
     9  C    3.711441   2.399959   1.512348   0.000000
    10  C    4.883333   3.649350   2.521895   1.399167   0.000000
    11  C    6.113081   4.788652   3.809595   2.427824   1.395252
    12  C    6.396546   5.003454   4.318420   2.806792   2.417227
    13  C    5.553504   4.177390   3.815270   2.424217   2.783593
    14  C    4.165428   2.805480   2.534077   1.399366   2.411770
    15  C    1.530518   2.374174   3.680203   4.721598   6.018435
    16  C    2.444578   2.987599   4.335496   5.251568   6.436541
    17  C    2.433986   2.983644   4.015697   5.075442   6.034358
    18  C    3.404951   4.735982   5.528061   6.951907   7.922556
    19  C    4.713428   5.918611   6.660020   8.049382   8.900990
    20  O    4.931746   5.932466   6.666735   7.952359   8.715659
    21  N    5.877762   7.158450   7.870500   9.299531  10.151655
    22  C    6.226896   7.604184   8.250193   9.731926  10.621628
    23  C    7.135693   8.338903   9.047227  10.435506  11.219949
    24  H    4.633857   5.315630   4.871155   6.205305   6.495704
    25  H    3.968031   4.425862   4.069098   5.332673   5.592626
    26  H    3.108754   3.608476   3.119643   4.503928   4.969421
    27  H    2.185093   2.582753   2.820098   4.120381   4.802083
    28  H    1.100689   2.079807   2.558901   3.943509   5.057685
    29  H    2.764419   2.091496   1.101145   2.146586   2.638175
    30  H    2.598559   2.066715   1.104957   2.154494   3.034225
    31  H    5.035107   3.990895   2.718242   2.155535   1.087649
    32  H    7.022863   5.741497   4.673223   3.408804   2.152459
    33  H    7.459302   6.059342   5.404478   3.892897   3.402492
    34  H    6.141672   4.819101   4.683428   3.405620   3.869954
    35  H    3.700976   2.482022   2.726404   2.146471   3.391164
    36  H    2.172783   2.503898   3.799083   4.568895   5.945194
    37  H    2.152724   3.299508   4.468814   5.625619   6.908304
    38  H    3.022726   3.069849   4.429844   5.047798   6.225159
    39  H    3.335676   4.049015   5.396188   6.337639   7.531351
    40  H    3.359227   4.050746   5.003869   6.100719   6.980615
    41  H    2.918358   2.951407   3.838157   4.657891   5.484754
    42  H    3.219449   4.491244   5.515880   6.836549   7.917670
    43  H    3.815474   5.228131   5.956998   7.415573   8.419873
    44  H    5.687467   7.062793   7.575839   9.080024   9.930795
    45  H    7.250838   8.613899   9.190298  10.682508  11.512332
    46  H    6.378066   7.786157   8.554659  10.010716  11.004209
    47  H    7.696940   8.882175   9.450061  10.858185  11.544349
    48  H    7.064091   8.154886   8.901354  10.215359  10.968856
    49  H    7.830318   9.076364   9.869967  11.258391  12.111548
                   11         12         13         14         15
    11  C    0.000000
    12  C    1.395476   0.000000
    13  C    2.412826   1.396113   0.000000
    14  C    2.789637   2.420809   1.394799   0.000000
    15  C    7.108913   7.141837   6.088432   4.774701   0.000000
    16  C    7.479933   7.527976   6.540978   5.323228   1.549698
    17  C    7.191254   7.511751   6.762953   5.523886   2.481793
    18  C    9.242213   9.685772   8.911017   7.537060   3.403428
    19  C   10.220195  10.744023  10.051035   8.710438   4.716195
    20  O    9.988912  10.536939   9.914769   8.635880   4.986492
    21  N   11.491246  12.029366  11.321599   9.962795   5.806612
    22  C   11.984098  12.513844  11.771508  10.383504   6.166048
    23  C   12.542563  13.114979  12.452156  11.122945   7.040310
    24  H    7.856369   8.819754   8.611525   7.391492   5.910658
    25  H    6.950544   7.916033   7.735660   6.545227   5.274486
    26  H    6.353660   7.197342   6.886654   5.635529   4.539894
    27  H    6.131705   6.793572   6.329058   5.056475   3.362787
    28  H    6.317265   6.658545   5.859088   4.473679   2.209837
    29  H    4.019732   4.803142   4.549442   3.394736   4.180513
    30  H    4.276199   4.784370   4.281371   3.041336   3.907230
    31  H    2.152633   3.400798   3.871195   3.398379   6.334506
    32  H    1.086215   2.156493   3.399641   3.875825   8.092887
    33  H    2.156525   1.086108   2.157525   3.405275   8.144568
    34  H    3.398613   2.155467   1.086385   2.150963   6.444609
    35  H    3.873987   3.406428   2.158955   1.084421   4.017665
    36  H    6.892619   6.727553   5.547492   4.318495   1.093030
    37  H    8.043906   8.107220   7.047182   5.720183   1.095383
    38  H    7.115611   7.017569   5.992921   4.910856   2.185723
    39  H    8.567293   8.577968   7.549384   6.355955   2.200576
    40  H    8.151652   8.528765   7.822760   6.600315   3.300440
    41  H    6.554626   6.891026   6.248399   5.123101   3.163405
    42  H    9.169076   9.468554   8.585821   7.238485   2.767291
    43  H    9.749558  10.174826   9.363634   7.972134   3.772715
    44  H   11.306822  11.882095  11.184729   9.793183   5.830300
    45  H   12.888011  13.474881  12.776957  11.390013   7.249497
    46  H   12.339383  12.760727  11.918157  10.531934   6.079133
    47  H   12.887275  13.557052  12.979794  11.651305   7.780122
    48  H   12.250129  12.808581  12.170168  10.884470   6.947403
    49  H   13.426404  13.934496  13.201552  11.865882   7.563517
                   16         17         18         19         20
    16  C    0.000000
    17  C    1.557776   0.000000
    18  C    3.438320   2.987483   0.000000
    19  C    4.339978   3.609108   1.542154   0.000000
    20  O    4.270792   3.280738   2.393634   1.231246   0.000000
    21  N    5.539113   4.950384   2.497030   1.365114   2.278799
    22  C    6.237520   5.831867   2.948965   2.501951   3.624891
    23  C    6.549748   5.868179   3.836415   2.425761   2.734757
    24  H    6.430145   5.402283   4.499062   5.024145   5.364566
    25  H    5.447796   4.183189   4.190188   4.585279   4.541072
    26  H    5.202563   4.352369   4.189367   5.107597   5.378557
    27  H    3.362800   2.174278   3.395098   4.131129   3.971075
    28  H    3.417315   3.408792   3.581640   5.002924   5.427197
    29  H    4.600661   3.896780   5.376927   6.325546   6.227809
    30  H    4.871368   4.649887   5.597857   6.845776   7.035444
    31  H    6.715669   6.079411   7.778425   8.656143   8.451190
    32  H    8.416617   8.005615  10.033146  10.938852  10.661118
    33  H    8.493360   8.514910  10.753285  11.800144  11.564048
    34  H    6.886626   7.313622   9.487265  10.659145  10.540476
    35  H    4.657464   5.131745   7.052674   8.292858   8.292895
    36  H    2.224259   3.380256   4.456969   5.788425   6.056230
    37  H    2.196968   3.052779   2.916443   4.324935   4.842590
    38  H    1.092988   2.191794   4.519532   5.343651   5.132475
    39  H    1.094944   2.215550   3.367061   4.095437   4.083575
    40  H    2.239939   1.091606   2.714146   2.875365   2.324988
    41  H    2.182516   1.092759   4.016509   4.498436   3.960029
    42  H    2.609069   2.561078   1.089906   2.112185   2.686992
    43  H    4.149896   3.937491   1.089334   2.209246   3.301127
    44  H    6.114156   5.652969   2.712346   2.689752   3.852485
    45  H    7.291389   6.806536   3.982016   3.323257   4.301820
    46  H    6.212336   6.079543   3.220795   3.050041   4.196434
    47  H    7.360361   6.532405   4.459309   3.076289   3.334940
    48  H    6.235475   5.470346   3.990872   2.474305   2.272132
    49  H    7.082498   6.593911   4.475837   3.216645   3.618780
                   21         22         23         24         25
    21  N    0.000000
    22  C    1.462452   0.000000
    23  C    1.458440   2.486376   0.000000
    24  H    5.659488   5.691054   6.677666   0.000000
    25  H    5.544852   6.007689   6.449066   1.775579   0.000000
    26  H    6.036967   6.188567   7.207937   1.780148   1.769430
    27  H    5.397471   6.048077   6.418266   3.538445   2.204789
    28  H    6.019873   6.123520   7.369390   4.179101   3.937725
    29  H    7.544247   8.010169   8.633409   4.204607   3.188194
    30  H    7.948329   8.133345   9.212031   4.562614   4.177230
    31  H    9.872734  10.345204  10.894961   5.828304   4.933720
    32  H   12.201672  12.713429  13.207408   8.282439   7.385857
    33  H   13.093893  13.592787  14.164376   9.860311   8.951889
    34  H   11.918936  12.357416  13.057446   9.528824   8.668323
    35  H    9.513377   9.895268  10.705681   7.480974   6.691789
    36  H    6.841743   7.128976   8.080561   6.716833   6.123387
    37  H    5.233457   5.403234   6.538127   5.888021   5.517432
    38  H    6.561965   7.313463   7.494176   7.221946   6.110012
    39  H    5.153306   5.870774   6.082549   7.024844   6.133091
    40  H    4.203190   5.271170   4.953332   5.577683   4.366882
    41  H    5.858160   6.817035   6.658054   5.776307   4.327801
    42  H    3.088280   3.634315   4.301425   5.386970   4.891773
    43  H    2.627236   2.489933   4.080657   4.582165   4.682007
    44  H    2.105209   1.090207   3.306943   4.773387   5.301086
    45  H    2.081757   1.092992   2.506703   6.193770   6.628957
    46  H    2.136366   1.097985   3.091400   6.455740   6.770132
    47  H    2.116413   2.817869   1.097393   6.542449   6.446198
    48  H    2.080348   3.394733   1.088402   6.912111   6.400728
    49  H    2.101555   2.720556   1.095690   7.616118   7.465490
                   26         27         28         29         30
    26  H    0.000000
    27  H    2.382821   0.000000
    28  H    2.664063   2.701343   0.000000
    29  H    2.591861   2.257067   2.960506   0.000000
    30  H    2.818658   3.310579   2.264834   1.769240   0.000000
    31  H    4.480022   4.541810   5.140521   2.410933   3.146299
    32  H    6.918157   6.812367   7.198411   4.703396   5.097818
    33  H    8.260241   7.852589   7.726816   5.868749   5.846839
    34  H    7.776110   7.129601   6.473380   5.498509   5.106992
    35  H    5.703322   4.997220   4.053003   3.722262   3.148590
    36  H    5.216556   4.193382   2.682855   4.532699   3.985496
    37  H    4.726617   3.877753   2.420321   4.916920   4.489631
    38  H    5.869489   3.926201   4.053599   4.786603   5.110175
    39  H    5.969140   4.188449   4.179193   5.639618   5.862359
    40  H    4.845697   2.737364   4.215044   4.752230   5.596295
    41  H    4.645081   2.294353   3.951597   3.631714   4.677835
    42  H    4.793328   3.619466   3.615898   5.516348   5.689533
    43  H    4.398193   4.135040   3.702227   5.896545   5.831007
    44  H    5.324918   5.524892   5.434544   7.331237   7.359506
    45  H    6.930719   6.920729   7.112963   8.884723   9.051957
    46  H    6.752465   6.543920   6.270660   8.447619   8.411289
    47  H    7.329835   6.775935   7.850111   8.942133   9.572738
    48  H    7.310396   6.198979   7.450011   8.452170   9.195105
    49  H    8.108706   7.324404   8.050327   9.531743  10.008112
                   31         32         33         34         35
    31  H    0.000000
    32  H    2.474132   0.000000
    33  H    4.298277   2.487170   0.000000
    34  H    4.957539   4.299531   2.485864   0.000000
    35  H    4.289396   4.960141   4.305200   2.484814   0.000000
    36  H    6.432151   7.932254   7.675565   5.756081   3.403629
    37  H    7.156830   9.017268   9.117762   7.385664   4.940883
    38  H    6.636785   8.068663   7.915133   6.238658   4.231499
    39  H    7.798364   9.506691   9.524609   7.822796   5.625304
    40  H    6.930906   8.914157   9.523265   8.376039   6.221015
    41  H    5.545407   7.320836   7.853336   6.830441   4.879373
    42  H    7.912679  10.025863  10.510660   9.062111   6.644005
    43  H    8.282520  10.556020  11.248597   9.916737   7.441811
    44  H    9.620452  12.015207  12.966829  11.812610   9.355778
    45  H   11.171460  13.576410  14.556659  13.391035  10.935771
    46  H   10.825052  13.131537  13.830667  12.421867   9.943882
    47  H   11.123426  13.487726  14.611749  13.648202  11.309375
    48  H   10.660203  12.899703  13.833567  12.767611  10.494250
    49  H   11.837409  14.130450  14.982154  13.751134  11.375419
                   36         37         38         39         40
    36  H    0.000000
    37  H    1.763333   0.000000
    38  H    2.398014   3.029392   0.000000
    39  H    2.822012   2.386326   1.754267   0.000000
    40  H    4.264384   3.612249   2.926928   2.420078   0.000000
    41  H    3.859161   3.941635   2.307108   2.958204   1.760475
    42  H    3.784058   2.284195   3.688412   2.344602   2.352513
    43  H    4.721630   3.027901   5.240343   4.029043   3.776160
    44  H    6.780276   5.085910   7.204750   5.922913   5.253594
    45  H    8.217546   6.492544   8.360524   6.912743   6.181665
    46  H    6.953747   5.197158   7.273871   5.716367   5.576550
    47  H    8.843815   7.297297   8.315391   6.994895   5.641864
    48  H    7.989115   6.588757   7.088693   5.769115   4.458841
    49  H    8.553709   6.965528   8.017550   6.476604   5.685689
                   41         42         43         44         45
    41  H    0.000000
    42  H    3.649690   0.000000
    43  H    4.981187   1.760924   0.000000
    44  H    6.622448   3.587631   2.071112   0.000000
    45  H    7.752247   4.698730   3.548085   1.762104   0.000000
    46  H    7.125180   3.639243   2.600299   1.797874   1.769382
    47  H    7.264621   5.098533   4.640218   3.474498   2.486306
    48  H    6.147798   4.304949   4.492239   4.122020   3.566384
    49  H    7.432540   4.799336   4.573007   3.734449   2.583772
                   46         47         48         49
    46  H    0.000000
    47  H    3.631091   0.000000
    48  H    3.944845   1.777898   0.000000
    49  H    2.995316   1.779828   1.787677   0.000000
 Stoichiometry    C18H26N2O3
 Framework group  C1[X(C18H26N2O3)]
 Deg. of freedom   141
 Full point group                 C1      NOp   1
 Largest Abelian subgroup         C1      NOp   1
 Largest concise Abelian subgroup C1      NOp   1
                         Standard orientation:                         
 ---------------------------------------------------------------------
 Center     Atomic      Atomic             Coordinates (Angstroms)
 Number     Number       Type             X           Y           Z
 ---------------------------------------------------------------------
      1          6           0        0.706449    2.742807    0.006093
      2          6           0        1.810398    1.762083   -0.355361
      3          8           0        2.892719    2.174140   -0.776675
      4          7           0        1.584131    0.417145   -0.194331
      5          6           0        0.302747   -0.137698    0.288197
      6          6           0       -0.659054   -0.524272   -0.874815
      7          8           0       -2.003679   -0.606319   -0.403689
      8          6           0       -2.693282    0.630151   -0.319509
      9          6           0       -4.158422    0.384566   -0.036224
     10          6           0       -4.900773    1.331237    0.678196
     11          6           0       -6.265913    1.145405    0.898620
     12          6           0       -6.902191    0.001652    0.414541
     13          6           0       -6.165292   -0.951189   -0.291295
     14          6           0       -4.802565   -0.760040   -0.519113
     15          6           0       -0.235568   -1.946780   -1.248466
     16          6           0        0.147871   -2.618386    0.094473
     17          6           0        0.435984   -1.455026    1.089587
     18          6           0        2.727390   -0.433117   -0.532206
     19          6           0        3.834598   -0.372195    0.539530
     20          8           0        3.537591   -0.587647    1.714832
     21          7           0        5.122364   -0.182192    0.128319
     22          6           0        5.503804    0.306447   -1.196257
     23          6           0        6.190530   -0.306050    1.113574
     24          1           0        1.058447    3.736607   -0.268409
     25          1           0        0.499663    2.727671    1.081587
     26          1           0       -0.230039    2.534075   -0.518706
     27          1           0       -0.155962    0.629514    0.911328
     28          1           0       -0.596351    0.182654   -1.716148
     29          1           0       -2.271736    1.276974    0.465627
     30          1           0       -2.582451    1.176995   -1.273243
     31          1           0       -4.407729    2.218830    1.068154
     32          1           0       -6.828784    1.888409    1.456280
     33          1           0       -7.963318   -0.148668    0.590736
     34          1           0       -6.653013   -1.846750   -0.665902
     35          1           0       -4.223972   -1.501294   -1.059245
     36          1           0       -1.039442   -2.462590   -1.779919
     37          1           0        0.624332   -1.896816   -1.925178
     38          1           0       -0.676240   -3.235889    0.460742
     39          1           0        1.009652   -3.283740   -0.021886
     40          1           0        1.409485   -1.514213    1.579889
     41          1           0       -0.324950   -1.446324    1.873823
     42          1           0        2.400673   -1.472689   -0.553217
     43          1           0        3.083737   -0.175635   -1.528885
     44          1           0        4.769970    1.026539   -1.558895
     45          1           0        6.461164    0.826092   -1.106465
     46          1           0        5.632720   -0.508840   -1.920314
     47          1           0        6.604178    0.677193    1.371254
     48          1           0        5.783170   -0.763102    2.013452
     49          1           0        6.998024   -0.928639    0.712485
 ---------------------------------------------------------------------
 Rotational constants (GHZ):      0.6850351      0.1018341      0.0956500
 Standard basis: 6-31G(d,p) (6D, 7F)
 There are   475 symmetry adapted basis functions of A   symmetry.
 Integral buffers will be    131072 words long.
 Raffenetti 2 integral format.
 Two-electron integral symmetry is turned on.
   475 basis functions,   826 primitive gaussians,   475 cartesian basis functions
    86 alpha electrons       86 beta electrons
       nuclear repulsion energy      1970.1870304137 Hartrees.
 NAtoms=   49 NActive=   49 NUniq=   49 SFac= 1.00D+00 NAtFMM=   60 NAOKFM=F Big=F
 One-electron integrals computed using PRISM.
 NBasis=   475 RedAO= T  NBF=   475
 NBsUse=   475 1.00D-06 NBFU=   475
 Harris functional with IExCor=  402 diagonalized for initial guess.
 ExpMin= 1.61D-01 ExpMax= 5.48D+03 ExpMxC= 8.25D+02 IAcc=1 IRadAn=         1 AccDes= 0.00D+00
 HarFok:  IExCor=  402 AccDes= 0.00D+00 IRadAn=         1 IDoV= 1
 ScaDFX=  1.000000  1.000000  1.000000  1.000000
 FoFCou: FMM=F IPFlag=           0 FMFlag=      100000 FMFlg1=           0
         NFxFlg=           0 DoJE=T BraDBF=F KetDBF=T FulRan=T
         Omega=  0.000000  0.000000  1.000000  0.000000  0.000000 ICntrl=     500 IOpCl=  0
         NMat0=    1 NMatS0=    1 NMatT0=    0 NMatD0=    1 NMtDS0=    0 NMtDT0=    0
         I1Cent=           4 NGrid=           0.
 Petite list used in FoFCou.
 Initial guess orbital symmetries:
       Occupied  (A) (A) (A) (A) (A) (A) (A) (A) (A) (A) (A) (A)
                 (A) (A) (A) (A) (A) (A) (A) (A) (A) (A) (A) (A)
                 (A) (A) (A) (A) (A) (A) (A) (A) (A) (A) (A) (A)
                 (A) (A) (A) (A) (A) (A) (A) (A) (A) (A) (A) (A)
                 (A) (A) (A) (A) (A) (A) (A) (A) (A) (A) (A) (A)
                 (A) (A) (A) (A) (A) (A) (A) (A) (A) (A) (A) (A)
                 (A) (A) (A) (A) (A) (A) (A) (A) (A) (A) (A) (A)
                 (A) (A)
       Virtual   (A) (A) (A) (A) (A) (A) (A) (A) (A) (A) (A) (A)
                 (A) (A) (A) (A) (A) (A) (A) (A) (A) (A) (A) (A)
                 (A) (A) (A) (A) (A) (A) (A) (A) (A) (A) (A) (A)
                 (A) (A) (A) (A) (A) (A) (A) (A) (A) (A) (A) (A)
                 (A) (A) (A) (A) (A) (A) (A) (A) (A) (A) (A) (A)
                 (A) (A) (A) (A) (A) (A) (A) (A) (A) (A) (A) (A)
                 (A) (A) (A) (A) (A) (A) (A) (A) (A) (A) (A) (A)
                 (A) (A) (A) (A) (A) (A) (A) (A) (A) (A) (A) (A)
                 (A) (A) (A) (A) (A) (A) (A) (A) (A) (A) (A) (A)
                 (A) (A) (A) (A) (A) (A) (A) (A) (A) (A) (A) (A)
                 (A) (A) (A) (A) (A) (A) (A) (A) (A) (A) (A) (A)
                 (A) (A) (A) (A) (A) (A) (A) (A) (A) (A) (A) (A)
                 (A) (A) (A) (A) (A) (A) (A) (A) (A) (A) (A) (A)
                 (A) (A) (A) (A) (A) (A) (A) (A) (A) (A) (A) (A)
                 (A) (A) (A) (A) (A) (A) (A) (A) (A) (A) (A) (A)
                 (A) (A) (A) (A) (A) (A) (A) (A) (A) (A) (A) (A)
                 (A) (A) (A) (A) (A) (A) (A) (A) (A) (A) (A) (A)
                 (A) (A) (A) (A) (A) (A) (A) (A) (A) (A) (A) (A)
                 (A) (A) (A) (A) (A) (A) (A) (A) (A) (A) (A) (A)
                 (A) (A) (A) (A) (A) (A) (A) (A) (A) (A) (A) (A)
                 (A) (A) (A) (A) (A) (A) (A) (A) (A) (A) (A) (A)
                 (A) (A) (A) (A) (A) (A) (A) (A) (A) (A) (A) (A)
                 (A) (A) (A) (A) (A) (A) (A) (A) (A) (A) (A) (A)
                 (A) (A) (A) (A) (A) (A) (A) (A) (A) (A) (A) (A)
                 (A) (A) (A) (A) (A) (A) (A) (A) (A) (A) (A) (A)
                 (A) (A) (A) (A) (A) (A) (A) (A) (A) (A) (A) (A)
                 (A) (A) (A) (A) (A) (A) (A) (A) (A) (A) (A) (A)
                 (A) (A) (A) (A) (A) (A) (A) (A) (A) (A) (A) (A)
                 (A) (A) (A) (A) (A) (A) (A) (A) (A) (A) (A) (A)
                 (A) (A) (A) (A) (A) (A) (A) (A) (A) (A) (A) (A)
                 (A) (A) (A) (A) (A) (A) (A) (A) (A) (A) (A) (A)
                 (A) (A) (A) (A) (A) (A) (A) (A) (A) (A) (A) (A)
                 (A) (A) (A) (A) (A)
 The electronic state of the initial guess is 1-A.
 Requested convergence on RMS density matrix=1.00D-08 within 128 cycles.
 Requested convergence on MAX density matrix=1.00D-06.
 Requested convergence on             energy=1.00D-06.
 No special actions if energy rises.
 Integral accuracy reduced to 1.0D-05 until final iterations.
 Initial convergence to 1.0D-05 achieved.  Increase integral accuracy.
 SCF Done:  E(RB3LYP) =  -1036.79132399     A.U. after   15 cycles
             Convg  =    0.7295D-08             -V/T =  2.0095

 **********************************************************************

            Population analysis using the SCF density.

 **********************************************************************

 Orbital symmetries:
       Occupied  (A) (A) (A) (A) (A) (A) (A) (A) (A) (A) (A) (A)
                 (A) (A) (A) (A) (A) (A) (A) (A) (A) (A) (A) (A)
                 (A) (A) (A) (A) (A) (A) (A) (A) (A) (A) (A) (A)
                 (A) (A) (A) (A) (A) (A) (A) (A) (A) (A) (A) (A)
                 (A) (A) (A) (A) (A) (A) (A) (A) (A) (A) (A) (A)
                 (A) (A) (A) (A) (A) (A) (A) (A) (A) (A) (A) (A)
                 (A) (A) (A) (A) (A) (A) (A) (A) (A) (A) (A) (A)
                 (A) (A)
       Virtual   (A) (A) (A) (A) (A) (A) (A) (A) (A) (A) (A) (A)
                 (A) (A) (A) (A) (A) (A) (A) (A) (A) (A) (A) (A)
                 (A) (A) (A) (A) (A) (A) (A) (A) (A) (A) (A) (A)
                 (A) (A) (A) (A) (A) (A) (A) (A) (A) (A) (A) (A)
                 (A) (A) (A) (A) (A) (A) (A) (A) (A) (A) (A) (A)
                 (A) (A) (A) (A) (A) (A) (A) (A) (A) (A) (A) (A)
                 (A) (A) (A) (A) (A) (A) (A) (A) (A) (A) (A) (A)
                 (A) (A) (A) (A) (A) (A) (A) (A) (A) (A) (A) (A)
                 (A) (A) (A) (A) (A) (A) (A) (A) (A) (A) (A) (A)
                 (A) (A) (A) (A) (A) (A) (A) (A) (A) (A) (A) (A)
                 (A) (A) (A) (A) (A) (A) (A) (A) (A) (A) (A) (A)
                 (A) (A) (A) (A) (A) (A) (A) (A) (A) (A) (A) (A)
                 (A) (A) (A) (A) (A) (A) (A) (A) (A) (A) (A) (A)
                 (A) (A) (A) (A) (A) (A) (A) (A) (A) (A) (A) (A)
                 (A) (A) (A) (A) (A) (A) (A) (A) (A) (A) (A) (A)
                 (A) (A) (A) (A) (A) (A) (A) (A) (A) (A) (A) (A)
                 (A) (A) (A) (A) (A) (A) (A) (A) (A) (A) (A) (A)
                 (A) (A) (A) (A) (A) (A) (A) (A) (A) (A) (A) (A)
                 (A) (A) (A) (A) (A) (A) (A) (A) (A) (A) (A) (A)
                 (A) (A) (A) (A) (A) (A) (A) (A) (A) (A) (A) (A)
                 (A) (A) (A) (A) (A) (A) (A) (A) (A) (A) (A) (A)
                 (A) (A) (A) (A) (A) (A) (A) (A) (A) (A) (A) (A)
                 (A) (A) (A) (A) (A) (A) (A) (A) (A) (A) (A) (A)
                 (A) (A) (A) (A) (A) (A) (A) (A) (A) (A) (A) (A)
                 (A) (A) (A) (A) (A) (A) (A) (A) (A) (A) (A) (A)
                 (A) (A) (A) (A) (A) (A) (A) (A) (A) (A) (A) (A)
                 (A) (A) (A) (A) (A) (A) (A) (A) (A) (A) (A) (A)
                 (A) (A) (A) (A) (A) (A) (A) (A) (A) (A) (A) (A)
                 (A) (A) (A) (A) (A) (A) (A) (A) (A) (A) (A) (A)
                 (A) (A) (A) (A) (A) (A) (A) (A) (A) (A) (A) (A)
                 (A) (A) (A) (A) (A) (A) (A) (A) (A) (A) (A) (A)
                 (A) (A) (A) (A) (A) (A) (A) (A) (A) (A) (A) (A)
                 (A) (A) (A) (A) (A)
 The electronic state is 1-A.
 Alpha  occ. eigenvalues --  -19.15670 -19.11021 -19.10285 -14.36452 -14.36105
 Alpha  occ. eigenvalues --  -10.28453 -10.27815 -10.24371 -10.24000 -10.22691
 Alpha  occ. eigenvalues --  -10.22573 -10.21300 -10.20828 -10.19702 -10.19172
 Alpha  occ. eigenvalues --  -10.19018 -10.18963 -10.18869 -10.18806 -10.18521
 Alpha  occ. eigenvalues --  -10.18513 -10.18212 -10.17562  -1.04092  -1.03262
 Alpha  occ. eigenvalues --   -1.02064  -0.93045  -0.92411  -0.85416  -0.82461
 Alpha  occ. eigenvalues --   -0.76686  -0.76257  -0.74222  -0.72846  -0.71773
 Alpha  occ. eigenvalues --   -0.71224  -0.70061  -0.67344  -0.66709  -0.60673
 Alpha  occ. eigenvalues --   -0.59103  -0.57948  -0.57172  -0.55702  -0.52361
 Alpha  occ. eigenvalues --   -0.51823  -0.51275  -0.50970  -0.49404  -0.49043
 Alpha  occ. eigenvalues --   -0.46875  -0.46418  -0.46377  -0.45615  -0.45230
 Alpha  occ. eigenvalues --   -0.44810  -0.43909  -0.42879  -0.41997  -0.41593
 Alpha  occ. eigenvalues --   -0.40872  -0.40591  -0.40044  -0.39962  -0.39628
 Alpha  occ. eigenvalues --   -0.39040  -0.37773  -0.37498  -0.37026  -0.36287
 Alpha  occ. eigenvalues --   -0.35772  -0.35273  -0.34549  -0.34279  -0.33879
 Alpha  occ. eigenvalues --   -0.33823  -0.33504  -0.32530  -0.31864  -0.27573
 Alpha  occ. eigenvalues --   -0.25119  -0.24868  -0.24679  -0.24175  -0.23400
 Alpha  occ. eigenvalues --   -0.22585
 Alpha virt. eigenvalues --   -0.00281  -0.00016   0.02472   0.02746   0.06932
 Alpha virt. eigenvalues --    0.08052   0.09166   0.09612   0.10184   0.11947
 Alpha virt. eigenvalues --    0.12416   0.13231   0.13530   0.13865   0.14114
 Alpha virt. eigenvalues --    0.14597   0.14919   0.15160   0.15373   0.16134
 Alpha virt. eigenvalues --    0.16760   0.17113   0.17246   0.17464   0.17566
 Alpha virt. eigenvalues --    0.18050   0.18277   0.18559   0.19215   0.19481
 Alpha virt. eigenvalues --    0.20273   0.21036   0.21628   0.22255   0.22762
 Alpha virt. eigenvalues --    0.23023   0.23825   0.25092   0.25784   0.26193
 Alpha virt. eigenvalues --    0.27814   0.28197   0.28839   0.30438   0.30640
 Alpha virt. eigenvalues --    0.32125   0.33142   0.33783   0.34752   0.35363
 Alpha virt. eigenvalues --    0.36444   0.38946   0.41988   0.46442   0.48067
 Alpha virt. eigenvalues --    0.49424   0.50743   0.51189   0.51348   0.52104
 Alpha virt. eigenvalues --    0.53054   0.53544   0.54122   0.54601   0.54838
 Alpha virt. eigenvalues --    0.55548   0.55857   0.56200   0.56807   0.57963
 Alpha virt. eigenvalues --    0.59216   0.59568   0.59778   0.60178   0.60679
 Alpha virt. eigenvalues --    0.60967   0.61226   0.61680   0.61879   0.62628
 Alpha virt. eigenvalues --    0.63428   0.63822   0.64405   0.64663   0.65782
 Alpha virt. eigenvalues --    0.66198   0.66615   0.67390   0.68453   0.69289
 Alpha virt. eigenvalues --    0.70215   0.70907   0.71476   0.73584   0.74841
 Alpha virt. eigenvalues --    0.75211   0.75667   0.76061   0.76741   0.78318
 Alpha virt. eigenvalues --    0.78854   0.80630   0.81098   0.81586   0.82204
 Alpha virt. eigenvalues --    0.82393   0.82989   0.83109   0.83666   0.84334
 Alpha virt. eigenvalues --    0.84519   0.84659   0.85221   0.86136   0.86711
 Alpha virt. eigenvalues --    0.87706   0.88123   0.88463   0.89051   0.89730
 Alpha virt. eigenvalues --    0.90560   0.90964   0.91558   0.92007   0.92413
 Alpha virt. eigenvalues --    0.93381   0.93696   0.94523   0.95121   0.96354
 Alpha virt. eigenvalues --    0.96894   0.98021   0.98709   1.00247   1.00525
 Alpha virt. eigenvalues --    1.01190   1.03223   1.03414   1.04884   1.05523
 Alpha virt. eigenvalues --    1.07685   1.08970   1.09248   1.10039   1.10103
 Alpha virt. eigenvalues --    1.12834   1.15422   1.16972   1.18009   1.19322
 Alpha virt. eigenvalues --    1.20961   1.22390   1.22736   1.24053   1.25677
 Alpha virt. eigenvalues --    1.26610   1.26886   1.29280   1.30827   1.32463
 Alpha virt. eigenvalues --    1.33978   1.34834   1.35602   1.36371   1.38153
 Alpha virt. eigenvalues --    1.39535   1.39968   1.40578   1.41842   1.41967
 Alpha virt. eigenvalues --    1.42926   1.43757   1.45338   1.46027   1.47794
 Alpha virt. eigenvalues --    1.51522   1.52414   1.53499   1.57433   1.58149
 Alpha virt. eigenvalues --    1.58898   1.61875   1.62367   1.66164   1.67212
 Alpha virt. eigenvalues --    1.68676   1.69867   1.70106   1.71074   1.71975
 Alpha virt. eigenvalues --    1.72243   1.74702   1.75404   1.76945   1.77438
 Alpha virt. eigenvalues --    1.78322   1.79329   1.79963   1.80040   1.81301
 Alpha virt. eigenvalues --    1.82915   1.83896   1.84881   1.86231   1.86538
 Alpha virt. eigenvalues --    1.86644   1.87341   1.88387   1.89102   1.89368
 Alpha virt. eigenvalues --    1.90339   1.91189   1.91641   1.92525   1.92773
 Alpha virt. eigenvalues --    1.94393   1.94953   1.95318   1.96054   1.96109
 Alpha virt. eigenvalues --    1.96605   1.97095   1.98632   1.99402   1.99819
 Alpha virt. eigenvalues --    2.00604   2.01394   2.02348   2.03674   2.03841
 Alpha virt. eigenvalues --    2.04463   2.04968   2.05538   2.06040   2.06804
 Alpha virt. eigenvalues --    2.07118   2.07483   2.07773   2.09306   2.10759
 Alpha virt. eigenvalues --    2.11699   2.12529   2.12692   2.14141   2.14666
 Alpha virt. eigenvalues --    2.15594   2.16748   2.18029   2.20202   2.22244
 Alpha virt. eigenvalues --    2.23159   2.23722   2.27020   2.27731   2.28066
 Alpha virt. eigenvalues --    2.28980   2.29298   2.30213   2.31062   2.31904
 Alpha virt. eigenvalues --    2.33212   2.33361   2.34093   2.35094   2.36213
 Alpha virt. eigenvalues --    2.37039   2.37368   2.38689   2.39265   2.40299
 Alpha virt. eigenvalues --    2.40799   2.41294   2.42694   2.42975   2.44219
 Alpha virt. eigenvalues --    2.44681   2.45488   2.46686   2.47882   2.49792
 Alpha virt. eigenvalues --    2.50264   2.50904   2.52600   2.52722   2.53397
 Alpha virt. eigenvalues --    2.54184   2.55629   2.56408   2.57622   2.58152
 Alpha virt. eigenvalues --    2.58827   2.59924   2.60423   2.62034   2.62498
 Alpha virt. eigenvalues --    2.64344   2.65252   2.66096   2.66796   2.67719
 Alpha virt. eigenvalues --    2.67872   2.68302   2.70053   2.70713   2.71270
 Alpha virt. eigenvalues --    2.72984   2.73664   2.74737   2.75282   2.76134
 Alpha virt. eigenvalues --    2.76545   2.77481   2.79492   2.80950   2.81210
 Alpha virt. eigenvalues --    2.81505   2.84508   2.85000   2.85851   2.86999
 Alpha virt. eigenvalues --    2.87487   2.88086   2.89531   2.89788   2.91313
 Alpha virt. eigenvalues --    2.93197   2.94298   2.95848   2.99805   3.01605
 Alpha virt. eigenvalues --    3.04662   3.05766   3.06671   3.08896   3.12501
 Alpha virt. eigenvalues --    3.13320   3.14977   3.15375   3.19147   3.19537
 Alpha virt. eigenvalues --    3.23798   3.24866   3.25218   3.26159   3.26428
 Alpha virt. eigenvalues --    3.27968   3.30906   3.35669   3.37049   3.37712
 Alpha virt. eigenvalues --    3.38488   3.41704   3.41830   3.43041   3.43886
 Alpha virt. eigenvalues --    3.44246   3.44693   3.45484   3.46974   3.47593
 Alpha virt. eigenvalues --    3.47750   3.51127   3.51979   3.52079   3.59325
 Alpha virt. eigenvalues --    3.89929   3.98115   4.04009   4.09122   4.13167
 Alpha virt. eigenvalues --    4.15507   4.16104   4.17348   4.26168   4.35161
 Alpha virt. eigenvalues --    4.37000   4.38959   4.43191   4.43757   4.50809
 Alpha virt. eigenvalues --    4.53028   4.54119   4.54952   4.58311   4.66489
 Alpha virt. eigenvalues --    4.73983   4.80753   4.83973   4.88091
          Condensed to atoms (all electrons):
              1          2          3          4          5          6
     1  C    5.171596   0.344130  -0.080137  -0.122632  -0.000491  -0.001031
     2  C    0.344130   4.378384   0.566961   0.268429  -0.029186  -0.000510
     3  O   -0.080137   0.566961   8.098934  -0.104285   0.002150   0.000000
     4  N   -0.122632   0.268429  -0.104285   7.119550   0.234691  -0.053690
     5  C   -0.000491  -0.029186   0.002150   0.234691   5.003590   0.329227
     6  C   -0.001031  -0.000510   0.000000  -0.053690   0.329227   4.867399
     7  O    0.000050   0.000056   0.000000   0.002462  -0.039806   0.187355
     8  C   -0.000620   0.000025   0.000000   0.000090  -0.005213  -0.019893
     9  C    0.000026   0.000000   0.000000  -0.000001  -0.000097   0.003994
    10  C   -0.000001   0.000000   0.000000   0.000000   0.000004  -0.000071
    11  C    0.000000   0.000000   0.000000   0.000000   0.000000   0.000002
    12  C    0.000000   0.000000   0.000000   0.000000   0.000000   0.000000
    13  C    0.000000   0.000000   0.000000   0.000000   0.000000   0.000002
    14  C    0.000000   0.000000   0.000000   0.000000   0.000020   0.000354
    15  C    0.000079  -0.000217   0.000001   0.000976  -0.057221   0.369426
    16  C   -0.000003  -0.000198   0.000001   0.000279  -0.067028  -0.057683
    17  C   -0.000176   0.002692  -0.000075  -0.039574   0.354794  -0.065376
    18  C    0.008167  -0.035664   0.009248   0.264816  -0.033789  -0.002821
    19  C   -0.000172   0.000205   0.006282  -0.051630  -0.001970   0.000048
    20  O   -0.000040   0.001473  -0.000341   0.003091   0.000468   0.000033
    21  N   -0.000011   0.000301  -0.001304   0.001757  -0.000036   0.000002
    22  C   -0.000041  -0.000095  -0.010663   0.000458  -0.000003   0.000000
    23  C    0.000000  -0.000030  -0.000031  -0.000099   0.000001   0.000000
    24  H    0.365245  -0.022809   0.005777   0.004706   0.000361   0.000006
    25  H    0.365301  -0.021532   0.000898   0.002138  -0.003212   0.000083
    26  H    0.355830  -0.019072   0.001773   0.001209   0.000236   0.000301
    27  H    0.008362  -0.011621   0.000115  -0.037767   0.384542  -0.048812
    28  H   -0.000717   0.002521  -0.000107   0.004464  -0.063672   0.367585
    29  H    0.000029  -0.000046   0.000000  -0.000401   0.003311  -0.002772
    30  H   -0.000445   0.000005   0.000000   0.000095  -0.001767  -0.011653
    31  H   -0.000001   0.000000   0.000000   0.000000  -0.000001  -0.000002
    32  H    0.000000   0.000000   0.000000   0.000000   0.000000   0.000000
    33  H    0.000000   0.000000   0.000000   0.000000   0.000000   0.000000
    34  H    0.000000   0.000000   0.000000   0.000000   0.000000   0.000000
    35  H    0.000000   0.000000   0.000000   0.000000   0.000040  -0.000321
    36  H    0.000000   0.000001   0.000000  -0.000078   0.005456  -0.025571
    37  H   -0.000008   0.000046  -0.000007  -0.000144   0.002065  -0.033943
    38  H    0.000000   0.000003   0.000000  -0.000058   0.002779  -0.000554
    39  H    0.000000   0.000005   0.000000   0.000513   0.002672   0.004420
    40  H    0.000010   0.000119  -0.000013  -0.005034  -0.031552   0.004301
    41  H   -0.000006   0.000032   0.000001   0.003897  -0.030025   0.001505
    42  H   -0.000114   0.006140   0.001148  -0.033883  -0.004879  -0.000807
    43  H   -0.000004  -0.007754   0.004992  -0.036402   0.004045   0.000563
    44  H    0.000216  -0.000110   0.023665  -0.000822  -0.000009   0.000000
    45  H    0.000000   0.000005   0.000035   0.000003   0.000000   0.000000
    46  H    0.000000  -0.000008   0.000184  -0.000065   0.000000   0.000000
    47  H    0.000000   0.000005   0.000014   0.000009   0.000000   0.000000
    48  H    0.000000  -0.000005   0.000000  -0.000010   0.000000   0.000000
    49  H    0.000000   0.000000  -0.000001  -0.000001   0.000000   0.000000
              7          8          9         10         11         12
     1  C    0.000050  -0.000620   0.000026  -0.000001   0.000000   0.000000
     2  C    0.000056   0.000025   0.000000   0.000000   0.000000   0.000000
     3  O    0.000000   0.000000   0.000000   0.000000   0.000000   0.000000
     4  N    0.002462   0.000090  -0.000001   0.000000   0.000000   0.000000
     5  C   -0.039806  -0.005213  -0.000097   0.000004   0.000000   0.000000
     6  C    0.187355  -0.019893   0.003994  -0.000071   0.000002   0.000000
     7  O    8.311990   0.218722  -0.039090   0.001538  -0.000075   0.000004
     8  C    0.218722   4.830003   0.357944  -0.053207   0.006089   0.000368
     9  C   -0.039090   0.357944   4.775732   0.529004  -0.020649  -0.034583
    10  C    0.001538  -0.053207   0.529004   4.905413   0.522947  -0.040218
    11  C   -0.000075   0.006089  -0.020649   0.522947   4.817739   0.549803
    12  C    0.000004   0.000368  -0.034583  -0.040218   0.549803   4.806641
    13  C    0.000372   0.006260  -0.025304  -0.046246  -0.029269   0.544540
    14  C    0.001333  -0.060612   0.535534  -0.035308  -0.046230  -0.037999
    15  C   -0.049184   0.004876  -0.000111   0.000002   0.000000   0.000000
    16  C    0.001446  -0.000120   0.000012   0.000000   0.000000   0.000000
    17  C    0.002781  -0.000108  -0.000026  -0.000001   0.000000   0.000000
    18  C   -0.000006   0.000001   0.000000   0.000000   0.000000   0.000000
    19  C    0.000000   0.000000   0.000000   0.000000   0.000000   0.000000
    20  O    0.000000   0.000000   0.000000   0.000000   0.000000   0.000000
    21  N    0.000000   0.000000   0.000000   0.000000   0.000000   0.000000
    22  C    0.000000   0.000000   0.000000   0.000000   0.000000   0.000000
    23  C    0.000000   0.000000   0.000000   0.000000   0.000000   0.000000
    24  H   -0.000001   0.000003   0.000000   0.000000   0.000000   0.000000
    25  H    0.000003  -0.000109   0.000003  -0.000001   0.000000   0.000000
    26  H   -0.000262   0.000840   0.000021  -0.000002   0.000000   0.000000
    27  H   -0.001739   0.001397  -0.000069  -0.000008   0.000000   0.000000
    28  H   -0.034284  -0.009907   0.000186  -0.000005   0.000000   0.000000
    29  H   -0.038572   0.353505  -0.039456  -0.004137   0.000038   0.000012
    30  H   -0.039697   0.353775  -0.027144   0.000040  -0.000329   0.000045
    31  H    0.000060  -0.010419  -0.048480   0.365403  -0.043305   0.004939
    32  H    0.000000  -0.000175   0.003815  -0.038022   0.366058  -0.041538
    33  H    0.000000   0.000008   0.000696   0.004858  -0.041584   0.368719
    34  H    0.000000  -0.000198   0.003702   0.001018   0.004513  -0.041971
    35  H    0.013851  -0.012522  -0.043914   0.006297   0.000311   0.004726
    36  H    0.000454  -0.000037  -0.000061   0.000001   0.000000   0.000000
    37  H    0.003412  -0.000191   0.000002   0.000000   0.000000   0.000000
    38  H    0.001635  -0.000068  -0.000002   0.000000   0.000000   0.000000
    39  H    0.000058   0.000001   0.000000   0.000000   0.000000   0.000000
    40  H    0.000081  -0.000011   0.000000   0.000000   0.000000   0.000000
    41  H    0.002457   0.000230  -0.000025   0.000001   0.000000   0.000000
    42  H   -0.000008   0.000000   0.000000   0.000000   0.000000   0.000000
    43  H   -0.000001   0.000000   0.000000   0.000000   0.000000   0.000000
    44  H    0.000000   0.000000   0.000000   0.000000   0.000000   0.000000
    45  H    0.000000   0.000000   0.000000   0.000000   0.000000   0.000000
    46  H    0.000000   0.000000   0.000000   0.000000   0.000000   0.000000
    47  H    0.000000   0.000000   0.000000   0.000000   0.000000   0.000000
    48  H    0.000000   0.000000   0.000000   0.000000   0.000000   0.000000
    49  H    0.000000   0.000000   0.000000   0.000000   0.000000   0.000000
             13         14         15         16         17         18
     1  C    0.000000   0.000000   0.000079  -0.000003  -0.000176   0.008167
     2  C    0.000000   0.000000  -0.000217  -0.000198   0.002692  -0.035664
     3  O    0.000000   0.000000   0.000001   0.000001  -0.000075   0.009248
     4  N    0.000000   0.000000   0.000976   0.000279  -0.039574   0.264816
     5  C    0.000000   0.000020  -0.057221  -0.067028   0.354794  -0.033789
     6  C    0.000002   0.000354   0.369426  -0.057683  -0.065376  -0.002821
     7  O    0.000372   0.001333  -0.049184   0.001446   0.002781  -0.000006
     8  C    0.006260  -0.060612   0.004876  -0.000120  -0.000108   0.000001
     9  C   -0.025304   0.535534  -0.000111   0.000012  -0.000026   0.000000
    10  C   -0.046246  -0.035308   0.000002   0.000000  -0.000001   0.000000
    11  C   -0.029269  -0.046230   0.000000   0.000000   0.000000   0.000000
    12  C    0.544540  -0.037999   0.000000   0.000000   0.000000   0.000000
    13  C    4.838761   0.514433  -0.000001   0.000000   0.000000   0.000000
    14  C    0.514433   4.886055  -0.000111   0.000000   0.000002   0.000000
    15  C   -0.000001  -0.000111   5.000388   0.364617  -0.077435   0.000253
    16  C    0.000000   0.000000   0.364617   4.943906   0.361176  -0.002401
    17  C    0.000000   0.000002  -0.077435   0.361176   5.039295   0.001328
    18  C    0.000000   0.000000   0.000253  -0.002401   0.001328   5.060708
    19  C    0.000000   0.000000   0.000076   0.000062  -0.001238   0.313968
    20  O    0.000000   0.000000  -0.000012   0.000115  -0.011845  -0.089785
    21  N    0.000000   0.000000  -0.000001   0.000003  -0.000086  -0.102284
    22  C    0.000000   0.000000   0.000000   0.000000   0.000003  -0.000665
    23  C    0.000000   0.000000   0.000000   0.000000   0.000001   0.005723
    24  H    0.000000   0.000000   0.000000   0.000000  -0.000007  -0.000161
    25  H    0.000000   0.000000  -0.000006  -0.000001   0.000096  -0.000158
    26  H    0.000000   0.000000  -0.000049  -0.000004   0.000178  -0.000285
    27  H    0.000000  -0.000010   0.006229   0.005218  -0.032621   0.004789
    28  H    0.000000  -0.000026  -0.038917   0.006060   0.007011   0.000094
    29  H   -0.000109   0.006872  -0.000225  -0.000041   0.000067  -0.000001
[...]
    44  H    5.862519   7.236785   7.776781   9.277308  10.129718
    45  H    7.367337   8.714018   9.314186  10.796310  11.618669
    46  H    6.520670   7.913006   8.707495  10.154986  11.141161
    47  H    7.656959   8.802348   9.360840  10.748020  11.407718
    48  H    6.932067   7.968567   8.692616   9.980140  10.699136
    49  H    7.792308   8.990290   9.782702  11.144925  11.969734
                   11         12         13         14         15
    11  C    0.000000
    12  C    1.395481   0.000000
    13  C    2.412838   1.396138   0.000000
    14  C    2.789696   2.420887   1.394841   0.000000
    15  C    7.109311   7.142291   6.088866   4.775056   0.000000
    16  C    7.480533   7.528632   6.541585   5.323720   1.549739
    17  C    7.191598   7.512118   6.763261   5.524106   2.481839
    18  C    9.242293   9.685950   8.911225   7.537201   3.403468
    19  C   10.125115  10.659060   9.978342   8.640695   4.698213
    20  O    9.771931  10.335636   9.732790   8.458116   4.907371
    21  N   11.437053  11.982944  11.288400   9.937056   5.822369
    22  C   12.089294  12.620808  11.882399  10.498815   6.262387
    23  C   12.375592  12.960086  12.320985  11.006308   7.012592
    24  H    7.855818   8.819414   8.611415   7.391478   5.911161
    25  H    6.950305   7.915855   7.735564   6.545192   5.274705
    26  H    6.353086   7.196993   6.886536   5.635503   4.540568
    27  H    6.131600   6.793466   6.328919   5.056301   3.362802
    28  H    6.317465   6.658776   5.859308   4.473869   2.209838
    29  H    4.019863   4.803239   4.549469   3.394723   4.180511
    30  H    4.276235   4.784499   4.281550   3.041518   3.907439
    31  H    2.152662   3.400827   3.871203   3.398394   6.334759
    32  H    1.086238   2.156502   3.399671   3.875907   8.093302
    33  H    2.156546   1.086137   2.157592   3.405388   8.145072
    34  H    3.398623   2.155481   1.086388   2.150997   6.445067
    35  H    3.874066   3.406526   2.159025   1.084442   4.018006
    36  H    6.893079   6.728073   5.547995   4.318916   1.093045
    37  H    8.044260   8.107640   7.047598   5.720524   1.095423
    38  H    7.116511   7.018510   5.993783   4.911587   2.185816
    39  H    8.567952   8.578726   7.550110   6.356532   2.200605
    40  H    8.151962   8.529112   7.823068   6.600542   3.300570
    41  H    6.554905   6.891270   6.248531   5.123138   3.163367
    42  H    9.142265   9.443316   8.562712   7.215727   2.753647
    43  H    9.805246  10.225462   9.409365   8.018494   3.791634
    44  H   11.504697  12.076965  11.375262   9.984291   5.964571
    45  H   12.990323  13.578875  12.885725  11.504067   7.343545
    46  H   12.473649  12.897170  12.058754  10.677173   6.195337
    47  H   12.740695  13.422377  12.868135  11.553878   7.765372
    48  H   11.968349  12.543353  11.936258  10.668448   6.866113
    49  H   13.271557  13.790346  13.082268  11.763951   7.546928
                   16         17         18         19         20
    16  C    0.000000
    17  C    1.557785   0.000000
    18  C    3.438331   2.987586   0.000000
    19  C    4.310011   3.535913   1.550442   0.000000
    20  O    4.197290   3.137980   2.386412   1.231668   0.000000
    21  N    5.495916   4.860581   2.529942   1.356746   2.253922
    22  C    6.251023   5.818001   3.007222   2.495404   3.609322
    23  C    6.451283   5.702964   3.857973   2.419275   2.695326
    24  H    6.430268   5.402095   4.499195   4.943363   5.194104
    25  H    5.447629   4.182777   4.190200   4.473214   4.322061
    26  H    5.202932   4.352413   4.189667   5.025406   5.189989
    27  H    3.362806   2.174272   3.395204   4.028022   3.756517
    28  H    3.417379   3.408880   3.581517   4.962315   5.296027
    29  H    4.600664   3.896622   5.376689   6.229703   6.012404
    30  H    4.871622   4.649948   5.597675   6.776821   6.853616
    31  H    6.716091   6.079646   7.778331   8.552635   8.222190
    32  H    8.417246   8.005997  10.033218  10.837080  10.434914
    33  H    8.494079   8.515325  10.753513  11.714694  11.362580
    34  H    6.887252   7.313935   9.487539  10.594958  10.372911
    35  H    4.657899   5.131912   7.052861   8.236687   8.137693
    36  H    2.224329   3.380292   4.457029   5.775418   5.979950
    37  H    2.197029   3.052932   2.916560   4.335243   4.805351
    38  H    1.093008   2.191799   4.519565   5.307140   5.048918
    39  H    1.094970   2.215578   3.366966   4.093708   4.072633
    40  H    2.239952   1.091640   2.714410   2.798477   2.200747
    41  H    2.182518   1.092795   4.016671   4.409898   3.789044
    42  H    2.586824   2.528064   1.089947   2.132198   2.688280
    43  H    4.151014   3.950135   1.089469   2.236874   3.312217
    44  H    6.183520   5.716351   2.781290   2.685541   3.851087
    45  H    7.294524   6.778673   4.039859   3.316369   4.282065
    46  H    6.220444   6.056381   3.274706   3.044588   4.177889
    47  H    7.284231   6.398747   4.488479   3.069849   3.303820
    48  H    6.096056   5.247245   3.994003   2.470904   2.227295
    49  H    6.967502   6.409419   4.500012   3.210553   3.576223
                   21         22         23         24         25
    21  N    0.000000
    22  C    1.463427   0.000000
    23  C    1.459153   2.487981   0.000000
    24  H    5.667908   5.843818   6.633792   0.000000
    25  H    5.484407   6.083024   6.305907   1.775618   0.000000
    26  H    6.041006   6.344795   7.146925   1.780154   1.769512
    27  H    5.328406   6.101452   6.263778   3.538216   2.204612
    28  H    6.060090   6.293493   7.360214   4.179892   3.938449
    29  H    7.499052   8.113252   8.494097   4.204286   3.188080
    30  H    7.957265   8.296959   9.147735   4.562696   4.177492
    31  H    9.816157  10.450161  10.728362   5.827523   4.933445
    32  H   12.138862  12.814351  13.025299   8.281730   7.385571
    33  H   13.044169  13.697456  14.002544   9.859952   8.951698
    34  H   11.891561  12.467777  12.936118   9.528833   8.668258
    35  H    9.501145  10.013349  10.613201   7.481192   6.691852
    36  H    6.867175   7.239487   8.062867   6.717442   6.123670
    37  H    5.289874   5.525855   6.571526   5.888768   5.517862
    38  H    6.503841   7.316237   7.368547   7.222106   6.109867
    39  H    5.116438   5.854796   6.008933   7.024890   6.132828
    40  H    4.077725   5.201905   4.754466   5.577417   4.366353
    41  H    5.743481   6.789482   6.445837   5.775958   4.327255
    42  H    3.112854   3.678488   4.312089   5.373523   4.868737
    43  H    2.715294   2.614943   4.166078   4.652345   4.742638
    44  H    2.106605   1.090917   3.309172   4.989075   5.461455
    45  H    2.082818   1.093247   2.508430   6.366813   6.704883
    46  H    2.137630   1.098280   3.092996   6.632126   6.859029
    47  H    2.116772   2.819225   1.097411   6.511905   6.320212
    48  H    2.081677   3.397015   1.089097   6.780586   6.166481
    49  H    2.102947   2.722387   1.096390   7.611473   7.343254
                   26         27         28         29         30
    26  H    0.000000
    27  H    2.382581   0.000000
    28  H    2.665047   2.701469   0.000000
    29  H    2.591406   2.256702   2.960648   0.000000
    30  H    2.818688   3.310358   2.264949   1.769290   0.000000
    31  H    4.479155   4.541683   5.140642   2.411091   3.146160
    32  H    6.917448   6.812300   7.198623   4.703575   5.097837
    33  H    8.259890   7.852512   7.727078   5.868872   5.846998
    34  H    7.776118   7.129469   6.473611   5.498521   5.107211
    35  H    5.703549   4.997048   4.053198   3.722215   3.148840
    36  H    5.217299   4.193367   2.682875   4.532756   3.985810
    37  H    4.727501   3.877901   2.420282   4.916952   4.489798
    38  H    5.869910   3.926266   4.053810   4.786801   5.110670
    39  H    5.969474   4.188442   4.179164   5.639589   5.862571
    40  H    4.845717   2.737444   4.215207   4.752062   5.596362
    41  H    4.644908   2.294304   3.951652   3.631493   4.677820
    42  H    4.775445   3.589647   3.602151   5.489168   5.669817
    43  H    4.471207   4.183207   3.759509   5.955169   5.893989
    44  H    5.552731   5.664333   5.651771   7.521223   7.589728
    45  H    7.097704   6.966193   7.289112   8.985739   9.223772
    46  H    6.937898   6.606370   6.478996   8.574644   8.614369
    47  H    7.284253   6.646101   7.853077   8.823494   9.524384
    48  H    7.154117   5.957813   7.360458   8.209304   9.029328
    49  H    8.083583   7.177387   8.075207   9.409907   9.977684
                   31         32         33         34         35
    31  H    0.000000
    32  H    2.474197   0.000000
    33  H    4.298328   2.487169   0.000000
    34  H    4.957550   4.299554   2.485919   0.000000
    35  H    4.289426   4.960242   4.305336   2.484882   0.000000
    36  H    6.432460   7.932732   7.676137   5.756607   3.404040
    37  H    7.157038   9.017633   9.118233   7.386118   4.941231
    38  H    6.637496   8.069602   7.916137   6.239509   4.232120
    39  H    7.798780   9.507376   9.525452   7.823580   5.625843
    40  H    6.931100   8.914495   9.523659   8.376365   6.221215
    41  H    5.545650   7.321184   7.853625   6.830544   4.879311
    42  H    7.885144   9.998205  10.485444   9.040823   6.623971
    43  H    8.343527  10.613832  11.298462   9.957669   7.482364
    44  H    9.819352  12.213131  13.160992  11.997976   9.540297
    45  H   11.274861  13.673886  14.657781  13.499423  11.053380
    46  H   10.957815  13.261246  13.964780  12.561821  10.092188
    47  H   10.976724  13.325845  14.470100  13.545619  11.234679
    48  H   10.378232  12.598977  13.560214  12.548112  10.310927
    49  H   11.687064  13.959242  14.829152  13.640567  11.298426
                   36         37         38         39         40
    36  H    0.000000
    37  H    1.763341   0.000000
    38  H    2.398136   3.029465   0.000000
    39  H    2.822118   2.386313   1.754301   0.000000
    40  H    4.264498   3.612516   2.926860   2.420087   0.000000
    41  H    3.859074   3.941725   2.307080   2.958300   1.760552
    42  H    3.773826   2.283379   3.666402   2.331260   2.320984
    43  H    4.740076   3.039323   5.242195   4.009793   3.774485
    44  H    6.924907   5.221135   7.272220   5.950060   5.264583
    45  H    8.328224   6.616698   8.349592   6.887137   6.096184
    46  H    7.090175   5.348026   7.269349   5.682472   5.485046
    47  H    8.837347   7.335645   8.214001   6.940424   5.482848
    48  H    7.914569   6.579572   6.917099   5.681300   4.215357
    49  H    8.551441   7.019735   7.868714   6.376161   5.453477
                   41         42         43         44         45
    41  H    0.000000
    42  H    3.616588   0.000000
    43  H    4.998172   1.755383   0.000000
    44  H    6.686311   3.643837   2.187206   0.000000
    45  H    7.705664   4.740787   3.672890   1.763103   0.000000
    46  H    7.087516   3.681138   2.725939   1.798705   1.769398
    47  H    7.086172   5.116209   4.729678   3.476531   2.488027
    48  H    5.863845   4.300745   4.553363   4.124859   3.568801
    49  H    7.194944   4.808718   4.671015   3.736983   2.585403
                   46         47         48         49
    46  H    0.000000
    47  H    3.632445   0.000000
    48  H    3.947168   1.778424   0.000000
    49  H    2.997016   1.780300   1.788850   0.000000
 Stoichiometry    C18H26N2O3
 Framework group  C1[X(C18H26N2O3)]
 Deg. of freedom   141
 Full point group                 C1      NOp   1
 Largest Abelian subgroup         C1      NOp   1
 Largest concise Abelian subgroup C1      NOp   1
                         Standard orientation:                         
 ---------------------------------------------------------------------
 Center     Atomic      Atomic             Coordinates (Angstroms)
 Number     Number       Type             X           Y           Z
 ---------------------------------------------------------------------
      1          6           0        0.719431    2.743240   -0.089936
      2          6           0        1.817813    1.758847   -0.458520
      3          8           0        2.892455    2.166458   -0.903234
      4          7           0        1.595362    0.415797   -0.277556
      5          6           0        0.322713   -0.133892    0.233227
      6          6           0       -0.658303   -0.535301   -0.908602
      7          8           0       -1.994769   -0.612131   -0.413921
      8          6           0       -2.683606    0.625026   -0.333135
      9          6           0       -4.143658    0.382428   -0.022133
     10          6           0       -4.874431    1.337652    0.692902
     11          6           0       -6.235587    1.154083    0.938639
     12          6           0       -6.879289    0.004161    0.479625
     13          6           0       -6.153823   -0.957121   -0.226658
     14          6           0       -4.795201   -0.768334   -0.479812
     15          6           0       -0.240108   -1.962096   -1.271780
     16          6           0        0.166611   -2.616899    0.072654
     17          6           0        0.470496   -1.441200    1.048400
     18          6           0        2.733365   -0.437935   -0.624488
     19          6           0        3.775304   -0.302311    0.515617
     20          8           0        3.377628   -0.438709    1.673312
     21          7           0        5.099502   -0.199442    0.238716
     22          6           0        5.645147    0.168604   -1.068354
     23          6           0        6.048612   -0.291624    1.343171
     24          1           0        1.066061    3.733889   -0.382119
     25          1           0        0.531007    2.740718    0.989066
     26          1           0       -0.225729    2.527916   -0.596254
     27          1           0       -0.126102    0.640616    0.854561
     28          1           0       -0.610267    0.161209   -1.759572
     29          1           0       -2.249198    1.281475    0.436867
     30          1           0       -2.589210    1.160283   -1.295210
     31          1           0       -4.375390    2.230212    1.063419
     32          1           0       -6.789425    1.903764    1.496452
     33          1           0       -7.937233   -0.144335    0.675577
     34          1           0       -6.647282   -1.857452   -0.581820
     35          1           0       -4.225356   -1.516038   -1.020393
     36          1           0       -1.052491   -2.484864   -1.783147
     37          1           0        0.608164   -1.920032   -1.963603
     38          1           0       -0.650612   -3.230446    0.460435
     39          1           0        1.026922   -3.283043   -0.050141
     40          1           0        1.452167   -1.493834    1.522983
     41          1           0       -0.277220   -1.423298    1.845143
     42          1           0        2.385235   -1.470546   -0.602060
     43          1           0        3.124287   -0.249366   -1.623770
     44          1           0        4.990978    0.888829   -1.561749
     45          1           0        6.612585    0.652901   -0.911164
     46          1           0        5.810357   -0.705270   -1.712767
     47          1           0        6.480855    0.690523    1.573089
     48          1           0        5.524427   -0.660271    2.223774
     49          1           0        6.862999   -0.976936    1.080125
 ---------------------------------------------------------------------
 Rotational constants (GHZ):      0.6788887      0.1025385      0.0965213
 Standard basis: 6-31G(d,p) (6D, 7F)
 There are   475 symmetry adapted basis functions of A   symmetry.
 Integral buffers will be    131072 words long.
 Raffenetti 2 integral format.
 Two-electron integral symmetry is turned on.
   475 basis functions,   826 primitive gaussians,   475 cartesian basis functions
    86 alpha electrons       86 beta electrons
       nuclear repulsion energy      1973.6875251926 Hartrees.
 NAtoms=   49 NActive=   49 NUniq=   49 SFac= 1.00D+00 NAtFMM=   60 NAOKFM=F Big=F
 One-electron integrals computed using PRISM.
 NBasis=   475 RedAO= T  NBF=   475
 NBsUse=   475 1.00D-06 NBFU=   475
 Initial guess read from the read-write file.
 B after Tr=     0.000000    0.000000    0.000000
         Rot=    1.000000    0.000000    0.000000    0.000000 Ang=   0.00 deg.
 Initial guess orbital symmetries:
       Occupied  (A) (A) (A) (A) (A) (A) (A) (A) (A) (A) (A) (A)
                 (A) (A) (A) (A) (A) (A) (A) (A) (A) (A) (A) (A)
                 (A) (A) (A) (A) (A) (A) (A) (A) (A) (A) (A) (A)
                 (A) (A) (A) (A) (A) (A) (A) (A) (A) (A) (A) (A)
                 (A) (A) (A) (A) (A) (A) (A) (A) (A) (A) (A) (A)
                 (A) (A) (A) (A) (A) (A) (A) (A) (A) (A) (A) (A)
                 (A) (A) (A) (A) (A) (A) (A) (A) (A) (A) (A) (A)
                 (A) (A)
       Virtual   (A) (A) (A) (A) (A) (A) (A) (A) (A) (A) (A) (A)
                 (A) (A) (A) (A) (A) (A) (A) (A) (A) (A) (A) (A)
                 (A) (A) (A) (A) (A) (A) (A) (A) (A) (A) (A) (A)
                 (A) (A) (A) (A) (A) (A) (A) (A) (A) (A) (A) (A)
                 (A) (A) (A) (A) (A) (A) (A) (A) (A) (A) (A) (A)
                 (A) (A) (A) (A) (A) (A) (A) (A) (A) (A) (A) (A)
                 (A) (A) (A) (A) (A) (A) (A) (A) (A) (A) (A) (A)
                 (A) (A) (A) (A) (A) (A) (A) (A) (A) (A) (A) (A)
                 (A) (A) (A) (A) (A) (A) (A) (A) (A) (A) (A) (A)
                 (A) (A) (A) (A) (A) (A) (A) (A) (A) (A) (A) (A)
                 (A) (A) (A) (A) (A) (A) (A) (A) (A) (A) (A) (A)
                 (A) (A) (A) (A) (A) (A) (A) (A) (A) (A) (A) (A)
                 (A) (A) (A) (A) (A) (A) (A) (A) (A) (A) (A) (A)
                 (A) (A) (A) (A) (A) (A) (A) (A) (A) (A) (A) (A)
                 (A) (A) (A) (A) (A) (A) (A) (A) (A) (A) (A) (A)
                 (A) (A) (A) (A) (A) (A) (A) (A) (A) (A) (A) (A)
                 (A) (A) (A) (A) (A) (A) (A) (A) (A) (A) (A) (A)
                 (A) (A) (A) (A) (A) (A) (A) (A) (A) (A) (A) (A)
                 (A) (A) (A) (A) (A) (A) (A) (A) (A) (A) (A) (A)
                 (A) (A) (A) (A) (A) (A) (A) (A) (A) (A) (A) (A)
                 (A) (A) (A) (A) (A) (A) (A) (A) (A) (A) (A) (A)
                 (A) (A) (A) (A) (A) (A) (A) (A) (A) (A) (A) (A)
                 (A) (A) (A) (A) (A) (A) (A) (A) (A) (A) (A) (A)
                 (A) (A) (A) (A) (A) (A) (A) (A) (A) (A) (A) (A)
                 (A) (A) (A) (A) (A) (A) (A) (A) (A) (A) (A) (A)
                 (A) (A) (A) (A) (A) (A) (A) (A) (A) (A) (A) (A)
                 (A) (A) (A) (A) (A) (A) (A) (A) (A) (A) (A) (A)
                 (A) (A) (A) (A) (A) (A) (A) (A) (A) (A) (A) (A)
                 (A) (A) (A) (A) (A) (A) (A) (A) (A) (A) (A) (A)
                 (A) (A) (A) (A) (A) (A) (A) (A) (A) (A) (A) (A)
                 (A) (A) (A) (A) (A) (A) (A) (A) (A) (A) (A) (A)
                 (A) (A) (A) (A) (A) (A) (A) (A) (A) (A) (A) (A)
                 (A) (A) (A) (A) (A)
 Harris functional with IExCor=  402 diagonalized for initial guess.
 ExpMin= 1.61D-01 ExpMax= 5.48D+03 ExpMxC= 8.25D+02 IAcc=1 IRadAn=         1 AccDes= 0.00D+00
 HarFok:  IExCor=  402 AccDes= 0.00D+00 IRadAn=         1 IDoV= 1
 ScaDFX=  1.000000  1.000000  1.000000  1.000000
 FoFCou: FMM=F IPFlag=           0 FMFlag=      100000 FMFlg1=           0
         NFxFlg=           0 DoJE=T BraDBF=F KetDBF=T FulRan=T
         Omega=  0.000000  0.000000  1.000000  0.000000  0.000000 ICntrl=     500 IOpCl=  0
         NMat0=    1 NMatS0=    1 NMatT0=    0 NMatD0=    1 NMtDS0=    0 NMtDT0=    0
         I1Cent=           4 NGrid=           0.
 Petite list used in FoFCou.
 Requested convergence on RMS density matrix=1.00D-08 within 128 cycles.
 Requested convergence on MAX density matrix=1.00D-06.
 Requested convergence on             energy=1.00D-06.
 No special actions if energy rises.
 Integral accuracy reduced to 1.0D-05 until final iterations.
