 Entering Gaussian System, Link 0=/data/opt/apps/g09-C01/g09
 Initial command:
 /data/opt/apps/g09-C01/l1.exe /tmp/g09-tuu61186-5750022e85c7f8a2x/Gau-575019.inp -scrdir=/tmp/g09-tuu61186-5750022e85c7f8a2x/
 Entering Link 1 = /data/opt/apps/g09-C01/l1.exe PID=    575020.
  
 Copyright (c) 1988,1990,1992,1993,1995,1998,2003,2009,2011,
            Gaussian, Inc.  All Rights Reserved.
  
 This is part of the Gaussian(R) 09 program.  It is based on
 the Gaussian(R) 03 system (copyright 2003, Gaussian, Inc.),
 the Gaussian(R) 98 system (copyright 1998, Gaussian, Inc.),
 the Gaussian(R) 94 system (copyright 1995, Gaussian, Inc.),
 the Gaussian 92(TM) system (copyright 1992, Gaussian, Inc.),
 the Gaussian 90(TM) system (copyright 1990, Gaussian, Inc.),
 the Gaussian 88(TM) system (copyright 1988, Gaussian, Inc.),
 the Gaussian 86(TM) system (copyright 1986, Carnegie Mellon
 University), and the Gaussian 82(TM) system (copyright 1983,
 Carnegie Mellon University). Gaussian is a federally registered
 trademark of Gaussian, Inc.
  
 This software contains proprietary and confidential information,
 including trade secrets, belonging to Gaussian, Inc.
  
 This software is provided under written license and may be
 used, copied, transmitted, or stored only in accord with that
 written license.
  
 The following legend is applicable only to US Government
 contracts under FAR:
  
                    RESTRICTED RIGHTS LEGEND
  
 Use, reproduction and disclosure by the US Government is
 subject to restrictions as set forth in subparagraphs (a)
 and (c) of the Commercial Computer Software - Restricted
 Rights clause in FAR 52.227-19.
  
 Gaussian, Inc.
 340 Quinnipiac St., Bldg. 40, Wallingford CT 06492
  
  
 ---------------------------------------------------------------
 Warning -- This program may not be used in any manner that
 competes with the business of Gaussian, Inc. or will provide
 assistance to any competitor of Gaussian, Inc.  The licensee
 of this program is prohibited from giving any competitor of
 Gaussian, Inc. access to this program.  By using this program,
 the user acknowledges that Gaussian, Inc. is engaged in the
 business of creating and licensing software in the field of
 computational chemistry and represents and warrants to the
 licensee that it is not a competitor of Gaussian, Inc. and that
 it will not use this program in any manner prohibited above.
 ---------------------------------------------------------------
  

 Cite this work as:
 Gaussian 09, Revision C.01,
 M. J. Frisch, G. W. Trucks, H. B. Schlegel, G. E. Scuseria, 
 M. A. Robb, J. R. Cheeseman, G. Scalmani, V. Barone, B. Mennucci, 
 G. A. Petersson, H. Nakatsuji, M. Caricato, X. Li, H. P. Hratchian, 
 A. F. Izmaylov, J. Bloino, G. Zheng, J. L. Sonnenberg, M. Hada, 
 M. Ehara, K. Toyota, R. Fukuda, J. Hasegawa, M. Ishida, T. Nakajima, 
 Y. Honda, O. Kitao, H. Nakai, T. Vreven, J. A. Montgomery, Jr., 
 J. E. Peralta, F. Ogliaro, M. Bearpark, J. J. Heyd, E. Brothers, 
 K. N. Kudin, V. N. Staroverov, T. Keith, R. Kobayashi, J. Normand, 
 K. Raghavachari, A. Rendell, J. C. Burant, S. S. Iyengar, J. Tomasi, 
 M. Cossi, N. Rega, J. M. Millam, M. Klene, J. E. Knox, J. B. Cross, 
 V. Bakken, C. Adamo, J. Jaramillo, R. Gomperts, R. E. Stratmann, 
 O. Yazyev, A. J. Austin, R. Cammi, C. Pomelli, J. W. Ochterski, 
 R. L. Martin, K. Morokuma, V. G. Zakrzewski, G. A. Voth, 
 P. Salvador, J. J. Dannenberg, S. Dapprich, A. D. Daniels, 
 O. Farkas, J. B. Foresman, J. V. Ortiz, J. Cioslowski, 
 and D. J. Fox, Gaussian, Inc., Wallingford CT, 2010.
 
 ******************************************
 Gaussian 09:  EM64L-G09RevC.01 23-Sep-2011
                 9-Apr-2026 
 ******************************************
 %nprocshared=8
 Will use up to    8 processors via shared memory.
 %mem=16GB
 -----------------------------------
 # opt=modredundant b3lyp/6-31g(d,p)
 -----------------------------------
 1/14=-1,18=120,19=15,26=3,38=1/1,3;
 2/9=110,12=2,17=6,18=5,40=1/2;
 3/5=1,6=6,7=101,11=2,16=1,25=1,30=1,71=1,74=-5/1,2,3;
 4//1;
 5/5=2,38=5/2;
 6/7=2,8=2,9=2,10=2,28=1/1;
 7//1,2,3,16;
 1/14=-1,18=20,19=15/3(2);
 2/9=110/2;
 99//99;
 2/9=110/2;
 3/5=1,6=6,7=101,11=2,16=1,25=1,30=1,71=1,74=-5/1,2,3;
 4/5=5,16=3/1;
 5/5=2,38=5/2;
 7//1,2,3,16;
 1/14=-1,18=20,19=15/3(-5);
 2/9=110/2;
 6/7=2,8=2,9=2,10=2,19=2,28=1/1;
 99/9=1/99;
 ---------------
 QM dihedral opt
 ---------------
 Charge =  0 Multiplicity = 1
 Symbolic Z-Matrix:
 C                     0.70645  -2.74281  -0.00609 
 C                     1.8104   -1.76208   0.35536 
 O                     2.89272  -2.17414   0.77668 
 N                     1.58413  -0.41715   0.19433 
 C                     0.30275   0.1377   -0.2882 
 C                    -0.65905   0.52427   0.87482 
 O                    -2.00368   0.60632   0.40369 
 C                    -2.69328  -0.63015   0.31951 
 C                    -4.15842  -0.38457   0.03622 
 C                    -4.90077  -1.33124  -0.6782 
 C                    -6.26591  -1.14541  -0.89862 
 C                    -6.90219  -0.00165  -0.41454 
 C                    -6.16529   0.95119   0.2913 
 C                    -4.80257   0.76004   0.51911 
 C                    -0.23557   1.94678   1.24847 
 C                     0.14787   2.61839  -0.09447 
 C                     0.43598   1.45503  -1.08959 
 C                     2.72739   0.43312   0.53221 
 C                     3.8346    0.3722   -0.53953 
 O                     3.53759   0.58765  -1.71483 
 N                     5.12236   0.18219  -0.12832 
 C                     5.5038   -0.30645   1.19626 
 C                     6.19053   0.30605  -1.11357 
 H                     1.05845  -3.73661   0.26841 
 H                     0.49966  -2.72767  -1.08159 
 H                    -0.23004  -2.53408   0.51871 
 H                    -0.15596  -0.62951  -0.91133 
 H                    -0.59635  -0.18265   1.71615 
 H                    -2.27174  -1.27697  -0.46563 
 H                    -2.58245  -1.177     1.27324 
 H                    -4.40773  -2.21883  -1.06815 
 H                    -6.82878  -1.88841  -1.45628 
 H                    -7.96332   0.14867  -0.59074 
 H                    -6.65301   1.84675   0.6659 
 H                    -4.22397   1.50129   1.05924 
 H                    -1.03944   2.46259   1.77992 
 H                     0.62433   1.89682   1.92518 
 H                    -0.67624   3.23589  -0.46074 
 H                     1.00965   3.28374   0.02189 
 H                     1.40949   1.51421  -1.57989 
 H                    -0.32495   1.44632  -1.87382 
 H                     2.40067   1.47269   0.55322 
 H                     3.08374   0.17564   1.52889 
 H                     4.76997  -1.02654   1.5589 
 H                     6.46116  -0.82609   1.10647 
 H                     5.63272   0.50884   1.92031 
 H                     6.60418  -0.67719  -1.37125 
 H                     5.78317   0.7631   -2.01345 
 H                     6.99802   0.92864  -0.71249 
 
 The following ModRedundant input section has been read:
 D       2       4      18      19 S  36 10.000                                

 GradGradGradGradGradGradGradGradGradGradGradGradGradGradGradGradGradGrad
 Berny optimization.
 Initialization pass.
                           ----------------------------
                           !    Initial Parameters    !
                           ! (Angstroms and Degrees)  !
 --------------------------                            --------------------------
 ! Name  Definition              Value          Derivative Info.                !
 --------------------------------------------------------------------------------
 ! R1    R(1,2)                  1.5203         estimate D2E/DX2                !
 ! R2    R(1,24)                 1.0894         estimate D2E/DX2                !
 ! R3    R(1,25)                 1.0953         estimate D2E/DX2                !
 ! R4    R(1,26)                 1.0936         estimate D2E/DX2                !
 ! R5    R(2,3)                  1.2324         estimate D2E/DX2                !
 ! R6    R(2,4)                  1.3733         estimate D2E/DX2                !
 ! R7    R(4,5)                  1.4774         estimate D2E/DX2                !
 ! R8    R(4,18)                 1.4643         estimate D2E/DX2                !
 ! R9    R(5,6)                  1.5579         estimate D2E/DX2                !
 ! R10   R(5,17)                 1.5477         estimate D2E/DX2                !
 ! R11   R(5,27)                 1.0896         estimate D2E/DX2                !
 ! R12   R(6,7)                  1.4271         estimate D2E/DX2                !
 ! R13   R(6,15)                 1.5305         estimate D2E/DX2                !
 ! R14   R(6,28)                 1.1007         estimate D2E/DX2                !
 ! R15   R(7,8)                  1.4183         estimate D2E/DX2                !
 ! R16   R(8,9)                  1.5123         estimate D2E/DX2                !
 ! R17   R(8,29)                 1.1011         estimate D2E/DX2                !
 ! R18   R(8,30)                 1.105          estimate D2E/DX2                !
 ! R19   R(9,10)                 1.3992         estimate D2E/DX2                !
 ! R20   R(9,14)                 1.3994         estimate D2E/DX2                !
 ! R21   R(10,11)                1.3953         estimate D2E/DX2                !
 ! R22   R(10,31)                1.0876         estimate D2E/DX2                !
 ! R23   R(11,12)                1.3955         estimate D2E/DX2                !
 ! R24   R(11,32)                1.0862         estimate D2E/DX2                !
 ! R25   R(12,13)                1.3961         estimate D2E/DX2                !
 ! R26   R(12,33)                1.0861         estimate D2E/DX2                !
 ! R27   R(13,14)                1.3948         estimate D2E/DX2                !
 ! R28   R(13,34)                1.0864         estimate D2E/DX2                !
 ! R29   R(14,35)                1.0844         estimate D2E/DX2                !
 ! R30   R(15,16)                1.5497         estimate D2E/DX2                !
 ! R31   R(15,36)                1.093          estimate D2E/DX2                !
 ! R32   R(15,37)                1.0954         estimate D2E/DX2                !
 ! R33   R(16,17)                1.5578         estimate D2E/DX2                !
 ! R34   R(16,38)                1.093          estimate D2E/DX2                !
 ! R35   R(16,39)                1.0949         estimate D2E/DX2                !
 ! R36   R(17,40)                1.0916         estimate D2E/DX2                !
 ! R37   R(17,41)                1.0928         estimate D2E/DX2                !
 ! R38   R(18,19)                1.5422         estimate D2E/DX2                !
 ! R39   R(18,42)                1.0899         estimate D2E/DX2                !
 ! R40   R(18,43)                1.0893         estimate D2E/DX2                !
 ! R41   R(19,20)                1.2312         estimate D2E/DX2                !
 ! R42   R(19,21)                1.3651         estimate D2E/DX2                !
 ! R43   R(21,22)                1.4625         estimate D2E/DX2                !
 ! R44   R(21,23)                1.4584         estimate D2E/DX2                !
 ! R45   R(22,44)                1.0902         estimate D2E/DX2                !
 ! R46   R(22,45)                1.093          estimate D2E/DX2                !
 ! R47   R(22,46)                1.098          estimate D2E/DX2                !
 ! R48   R(23,47)                1.0974         estimate D2E/DX2                !
 ! R49   R(23,48)                1.0884         estimate D2E/DX2                !
 ! R50   R(23,49)                1.0957         estimate D2E/DX2                !
 ! A1    A(2,1,24)             107.0941         estimate D2E/DX2                !
 ! A2    A(2,1,25)             111.201          estimate D2E/DX2                !
 ! A3    A(2,1,26)             112.6193         estimate D2E/DX2                !
 ! A4    A(24,1,25)            108.7243         estimate D2E/DX2                !
 ! A5    A(24,1,26)            109.261          estimate D2E/DX2                !
 ! A6    A(25,1,26)            107.8721         estimate D2E/DX2                !
 ! A7    A(1,2,3)              120.2209         estimate D2E/DX2                !
 ! A8    A(1,2,4)              118.9637         estimate D2E/DX2                !
 ! A9    A(3,2,4)              120.8134         estimate D2E/DX2                !
 ! A10   A(2,4,5)              123.2986         estimate D2E/DX2                !
 ! A11   A(2,4,18)             114.3918         estimate D2E/DX2                !
 ! A12   A(5,4,18)             122.3082         estimate D2E/DX2                !
 ! A13   A(4,5,6)              112.6334         estimate D2E/DX2                !
 ! A14   A(4,5,17)             114.4635         estimate D2E/DX2                !
 ! A15   A(4,5,27)             106.7068         estimate D2E/DX2                !
 ! A16   A(6,5,17)             103.2082         estimate D2E/DX2                !
 ! A17   A(6,5,27)             109.9822         estimate D2E/DX2                !
 ! A18   A(17,5,27)            109.8419         estimate D2E/DX2                !
 ! A19   A(5,6,7)              110.4565         estimate D2E/DX2                !
 ! A20   A(5,6,15)             104.0078         estimate D2E/DX2                !
 ! A21   A(5,6,28)             112.091          estimate D2E/DX2                !
 ! A22   A(7,6,15)             106.7298         estimate D2E/DX2                !
 ! A23   A(7,6,28)             110.0556         estimate D2E/DX2                !
 ! A24   A(15,6,28)            113.2387         estimate D2E/DX2                !
 ! A25   A(6,7,8)              115.3147         estimate D2E/DX2                !
 ! A26   A(7,8,9)              109.9132         estimate D2E/DX2                !
 ! A27   A(7,8,29)             111.6103         estimate D2E/DX2                !
 ! A28   A(7,8,30)             109.3574         estimate D2E/DX2                !
 ! A29   A(9,8,29)             109.433          estimate D2E/DX2                !
 ! A30   A(9,8,30)             109.8292         estimate D2E/DX2                !
 ! A31   A(29,8,30)            106.6382         estimate D2E/DX2                !
 ! A32   A(8,9,10)             119.9853         estimate D2E/DX2                !
 ! A33   A(8,9,14)             120.9391         estimate D2E/DX2                !
 ! A34   A(10,9,14)            119.0381         estimate D2E/DX2                !
 ! A35   A(9,10,11)            120.6417         estimate D2E/DX2                !
 ! A36   A(9,10,31)            119.6502         estimate D2E/DX2                !
 ! A37   A(11,10,31)           119.7078         estimate D2E/DX2                !
 ! A38   A(10,11,12)           120.0317         estimate D2E/DX2                !
 ! A39   A(10,11,32)           119.8026         estimate D2E/DX2                !
 ! A40   A(12,11,32)           120.1629         estimate D2E/DX2                !
 ! A41   A(11,12,13)           119.6103         estimate D2E/DX2                !
 ! A42   A(11,12,33)           120.1743         estimate D2E/DX2                !
 ! A43   A(13,12,33)           120.2146         estimate D2E/DX2                !
 ! A44   A(12,13,14)           120.3135         estimate D2E/DX2                !
 ! A45   A(12,13,34)           119.9991         estimate D2E/DX2                !
 ! A46   A(14,13,34)           119.6874         estimate D2E/DX2                !
 ! A47   A(9,14,13)            120.3618         estimate D2E/DX2                !
 ! A48   A(9,14,35)            119.0376         estimate D2E/DX2                !
 ! A49   A(13,14,35)           120.5945         estimate D2E/DX2                !
 ! A50   A(6,15,16)            105.052          estimate D2E/DX2                !
 ! A51   A(6,15,36)            110.7206         estimate D2E/DX2                !
 ! A52   A(6,15,37)            109.0043         estimate D2E/DX2                !
 ! A53   A(16,15,36)           113.5036         estimate D2E/DX2                !
 ! A54   A(16,15,37)           111.155          estimate D2E/DX2                !
 ! A55   A(36,15,37)           107.3672         estimate D2E/DX2                !
 ! A56   A(15,16,17)           106.003          estimate D2E/DX2                !
 ! A57   A(15,16,38)           110.4068         estimate D2E/DX2                !
 ! A58   A(15,16,39)           111.4689         estimate D2E/DX2                !
 ! A59   A(17,16,38)           110.3227         estimate D2E/DX2                !
 ! A60   A(17,16,39)           112.0938         estimate D2E/DX2                !
 ! A61   A(38,16,39)           106.6032         estimate D2E/DX2                !
 ! A62   A(5,17,16)            106.7956         estimate D2E/DX2                !
 ! A63   A(5,17,40)            110.8239         estimate D2E/DX2                !
 ! A64   A(5,17,41)            107.7511         estimate D2E/DX2                !
 ! A65   A(16,17,40)           114.291          estimate D2E/DX2                !
 ! A66   A(16,17,41)           109.6094         estimate D2E/DX2                !
 ! A67   A(40,17,41)           107.4029         estimate D2E/DX2                !
 ! A68   A(4,18,19)            112.164          estimate D2E/DX2                !
 ! A69   A(4,18,42)            108.9202         estimate D2E/DX2                !
 ! A70   A(4,18,43)            109.2246         estimate D2E/DX2                !
 ! A71   A(19,18,42)           105.4441         estimate D2E/DX2                !
 ! A72   A(19,18,43)           113.0572         estimate D2E/DX2                !
 ! A73   A(42,18,43)           107.8107         estimate D2E/DX2                !
 ! A74   A(18,19,20)           118.8999         estimate D2E/DX2                !
 ! A75   A(18,19,21)           118.2577         estimate D2E/DX2                !
 ! A76   A(20,19,21)           122.6464         estimate D2E/DX2                !
 ! A77   A(19,21,22)           124.4285         estimate D2E/DX2                !
 ! A78   A(19,21,23)           118.3977         estimate D2E/DX2                !
 ! A79   A(22,21,23)           116.6932         estimate D2E/DX2                !
 ! A80   A(21,22,44)           110.2673         estimate D2E/DX2                !
 ! A81   A(21,22,45)           108.2342         estimate D2E/DX2                !
 ! A82   A(21,22,46)           112.3212         estimate D2E/DX2                !
 ! A83   A(44,22,45)           107.6309         estimate D2E/DX2                !
 ! A84   A(44,22,46)           110.4951         estimate D2E/DX2                !
 ! A85   A(45,22,46)           107.7195         estimate D2E/DX2                !
 ! A86   A(21,23,47)           111.0146         estimate D2E/DX2                !
 ! A87   A(21,23,48)           108.668          estimate D2E/DX2                !
 ! A88   A(21,23,49)           109.921          estimate D2E/DX2                !
 ! A89   A(47,23,48)           108.8558         estimate D2E/DX2                !
 ! A90   A(47,23,49)           108.4981         estimate D2E/DX2                !
 ! A91   A(48,23,49)           109.8692         estimate D2E/DX2                !
 ! D1    D(24,1,2,3)             4.9319         estimate D2E/DX2                !
 ! D2    D(24,1,2,4)          -175.5863         estimate D2E/DX2                !
 ! D3    D(25,1,2,3)          -113.7221         estimate D2E/DX2                !
 ! D4    D(25,1,2,4)            65.7596         estimate D2E/DX2                !
 ! D5    D(26,1,2,3)           125.065          estimate D2E/DX2                !
 ! D6    D(26,1,2,4)           -55.4533         estimate D2E/DX2                !
 ! D7    D(1,2,4,5)              1.3982         estimate D2E/DX2                !
 ! D8    D(1,2,4,18)          -178.1632         estimate D2E/DX2                !
 ! D9    D(3,2,4,5)           -179.1233         estimate D2E/DX2                !
 ! D10   D(3,2,4,18)             1.3154         estimate D2E/DX2                !
 ! D11   D(2,4,5,6)             93.4123         estimate D2E/DX2                !
 ! D12   D(2,4,5,17)          -149.0931         estimate D2E/DX2                !
 ! D13   D(2,4,5,27)           -27.3649         estimate D2E/DX2                !
 ! D14   D(18,4,5,6)           -87.0603         estimate D2E/DX2                !
 ! D15   D(18,4,5,17)           30.4342         estimate D2E/DX2                !
 ! D16   D(18,4,5,27)          152.1625         estimate D2E/DX2                !
 ! D17   D(2,4,18,19)           74.0845         Scan                            !
 ! D18   D(2,4,18,42)         -169.5817         estimate D2E/DX2                !
 ! D19   D(2,4,18,43)          -52.0674         estimate D2E/DX2                !
 ! D20   D(5,4,18,19)         -105.4817         estimate D2E/DX2                !
 ! D21   D(5,4,18,42)           10.8521         estimate D2E/DX2                !
 ! D22   D(5,4,18,43)          128.3663         estimate D2E/DX2                !
 ! D23   D(4,5,6,7)           -159.9001         estimate D2E/DX2                !
 ! D24   D(4,5,6,15)            85.9135         estimate D2E/DX2                !
 ! D25   D(4,5,6,28)           -36.7789         estimate D2E/DX2                !
 ! D26   D(17,5,6,7)            76.1329         estimate D2E/DX2                !
 ! D27   D(17,5,6,15)          -38.0535         estimate D2E/DX2                !
 ! D28   D(17,5,6,28)         -160.7459         estimate D2E/DX2                !
 ! D29   D(27,5,6,7)           -41.0172         estimate D2E/DX2                !
 ! D30   D(27,5,6,15)         -155.2037         estimate D2E/DX2                !
 ! D31   D(27,5,6,28)           82.104          estimate D2E/DX2                !
 ! D32   D(4,5,17,16)          -97.4234         estimate D2E/DX2                !
 ! D33   D(4,5,17,40)           27.6436         estimate D2E/DX2                !
 ! D34   D(4,5,17,41)          144.8853         estimate D2E/DX2                !
 ! D35   D(6,5,17,16)           25.3322         estimate D2E/DX2                !
 ! D36   D(6,5,17,40)          150.3991         estimate D2E/DX2                !
 ! D37   D(6,5,17,41)          -92.3592         estimate D2E/DX2                !
 ! D38   D(27,5,17,16)         142.5811         estimate D2E/DX2                !
 ! D39   D(27,5,17,40)         -92.3519         estimate D2E/DX2                !
 ! D40   D(27,5,17,41)          24.8898         estimate D2E/DX2                !
 ! D41   D(5,6,7,8)             82.5445         estimate D2E/DX2                !
 ! D42   D(15,6,7,8)          -165.0049         estimate D2E/DX2                !
 ! D43   D(28,6,7,8)           -41.7524         estimate D2E/DX2                !
 ! D44   D(5,6,15,16)           36.3143         estimate D2E/DX2                !
 ! D45   D(5,6,15,36)          159.2203         estimate D2E/DX2                !
 ! D46   D(5,6,15,37)          -82.8869         estimate D2E/DX2                !
 ! D47   D(7,6,15,16)          -80.501          estimate D2E/DX2                !
 ! D48   D(7,6,15,36)           42.405          estimate D2E/DX2                !
 ! D49   D(7,6,15,37)          160.2978         estimate D2E/DX2                !
 ! D50   D(28,6,15,16)         158.249          estimate D2E/DX2                !
 ! D51   D(28,6,15,36)         -78.845          estimate D2E/DX2                !
 ! D52   D(28,6,15,37)          39.0477         estimate D2E/DX2                !
 ! D53   D(6,7,8,9)            170.5182         estimate D2E/DX2                !
 ! D54   D(6,7,8,29)           -67.8729         estimate D2E/DX2                !
 ! D55   D(6,7,8,30)            49.8761         estimate D2E/DX2                !
 ! D56   D(7,8,9,10)           150.3771         estimate D2E/DX2                !
 ! D57   D(7,8,9,14)           -31.8682         estimate D2E/DX2                !
 ! D58   D(29,8,9,10)           27.4766         estimate D2E/DX2                !
 ! D59   D(29,8,9,14)         -154.7687         estimate D2E/DX2                !
 ! D60   D(30,8,9,10)          -89.2658         estimate D2E/DX2                !
 ! D61   D(30,8,9,14)           88.4889         estimate D2E/DX2                !
 ! D62   D(8,9,10,11)          177.2838         estimate D2E/DX2                !
 ! D63   D(8,9,10,31)           -2.9212         estimate D2E/DX2                !
 ! D64   D(14,9,10,11)          -0.5136         estimate D2E/DX2                !
 ! D65   D(14,9,10,31)         179.2815         estimate D2E/DX2                !
 ! D66   D(8,9,14,13)         -177.7088         estimate D2E/DX2                !
 ! D67   D(8,9,14,35)            3.183          estimate D2E/DX2                !
 ! D68   D(10,9,14,13)           0.0669         estimate D2E/DX2                !
 ! D69   D(10,9,14,35)        -179.0413         estimate D2E/DX2                !
 ! D70   D(9,10,11,12)           0.5283         estimate D2E/DX2                !
 ! D71   D(9,10,11,32)         179.9141         estimate D2E/DX2                !
 ! D72   D(31,10,11,12)       -179.2667         estimate D2E/DX2                !
 ! D73   D(31,10,11,32)          0.1191         estimate D2E/DX2                !
 ! D74   D(10,11,12,13)         -0.0908         estimate D2E/DX2                !
 ! D75   D(10,11,12,33)        179.5759         estimate D2E/DX2                !
 ! D76   D(32,11,12,13)       -179.4744         estimate D2E/DX2                !
 ! D77   D(32,11,12,33)          0.1923         estimate D2E/DX2                !
 ! D78   D(11,12,13,14)         -0.3537         estimate D2E/DX2                !
 ! D79   D(11,12,13,34)        179.6388         estimate D2E/DX2                !
 ! D80   D(33,12,13,14)        179.9797         estimate D2E/DX2                !
 ! D81   D(33,12,13,34)         -0.0277         estimate D2E/DX2                !
 ! D82   D(12,13,14,9)           0.3661         estimate D2E/DX2                !
 ! D83   D(12,13,14,35)        179.4603         estimate D2E/DX2                !
 ! D84   D(34,13,14,9)        -179.6265         estimate D2E/DX2                !
 ! D85   D(34,13,14,35)         -0.5323         estimate D2E/DX2                !
 ! D86   D(6,15,16,17)         -20.3237         estimate D2E/DX2                !
 ! D87   D(6,15,16,38)          99.1617         estimate D2E/DX2                !
 ! D88   D(6,15,16,39)        -142.5494         estimate D2E/DX2                !
 ! D89   D(36,15,16,17)       -141.4201         estimate D2E/DX2                !
 ! D90   D(36,15,16,38)        -21.9347         estimate D2E/DX2                !
 ! D91   D(36,15,16,39)         96.3543         estimate D2E/DX2                !
 ! D92   D(37,15,16,17)         97.428          estimate D2E/DX2                !
 ! D93   D(37,15,16,38)       -143.0866         estimate D2E/DX2                !
 ! D94   D(37,15,16,39)        -24.7976         estimate D2E/DX2                !
 ! D95   D(15,16,17,5)          -3.4732         estimate D2E/DX2                !
 ! D96   D(15,16,17,40)       -126.4045         estimate D2E/DX2                !
 ! D97   D(15,16,17,41)        112.9891         estimate D2E/DX2                !
 ! D98   D(38,16,17,5)        -123.0137         estimate D2E/DX2                !
 ! D99   D(38,16,17,40)        114.055          estimate D2E/DX2                !
 ! D100  D(38,16,17,41)         -6.5514         estimate D2E/DX2                !
 ! D101  D(39,16,17,5)         118.3532         estimate D2E/DX2                !
 ! D102  D(39,16,17,40)         -4.5781         estimate D2E/DX2                !
 ! D103  D(39,16,17,41)       -125.1845         estimate D2E/DX2                !
 ! D104  D(4,18,19,20)          52.8783         estimate D2E/DX2                !
 ! D105  D(4,18,19,21)        -132.0721         estimate D2E/DX2                !
 ! D106  D(42,18,19,20)        -65.532          estimate D2E/DX2                !
 ! D107  D(42,18,19,21)        109.5176         estimate D2E/DX2                !
 ! D108  D(43,18,19,20)        176.9208         estimate D2E/DX2                !
 ! D109  D(43,18,19,21)         -8.0296         estimate D2E/DX2                !
 ! D110  D(18,19,21,22)         16.4894         estimate D2E/DX2                !
 ! D111  D(18,19,21,23)       -171.7436         estimate D2E/DX2                !
 ! D112  D(20,19,21,22)       -168.6581         estimate D2E/DX2                !
 ! D113  D(20,19,21,23)          3.1089         estimate D2E/DX2                !
 ! D114  D(19,21,22,44)         34.3674         estimate D2E/DX2                !
 ! D115  D(19,21,22,45)        151.8576         estimate D2E/DX2                !
 ! D116  D(19,21,22,46)        -89.3484         estimate D2E/DX2                !
 ! D117  D(23,21,22,44)       -137.5272         estimate D2E/DX2                !
 ! D118  D(23,21,22,45)        -20.037          estimate D2E/DX2                !
 ! D119  D(23,21,22,46)         98.757          estimate D2E/DX2                !
 ! D120  D(19,21,23,47)       -106.9213         estimate D2E/DX2                !
 ! D121  D(19,21,23,48)         12.7637         estimate D2E/DX2                !
 ! D122  D(19,21,23,49)        133.0302         estimate D2E/DX2                !
 ! D123  D(22,21,23,47)         65.4816         estimate D2E/DX2                !
 ! D124  D(22,21,23,48)       -174.8334         estimate D2E/DX2                !
 ! D125  D(22,21,23,49)        -54.5669         estimate D2E/DX2                !
 --------------------------------------------------------------------------------
 Trust Radius=3.00D-01 FncErr=1.00D-07 GrdErr=1.00D-06
 Number of optimizations in scan=  37
 Number of steps in this run=    276 maximum allowed number of steps=    294.
 GradGradGradGradGradGradGradGradGradGradGradGradGradGradGradGradGradGrad

                          Input orientation:                          
 ---------------------------------------------------------------------
 Center     Atomic      Atomic             Coordinates (Angstroms)
 Number     Number       Type             X           Y           Z
 ---------------------------------------------------------------------
      1          6           0        0.706449   -2.742807   -0.006093
      2          6           0        1.810398   -1.762083    0.355361
      3          8           0        2.892719   -2.174140    0.776675
      4          7           0        1.584131   -0.417145    0.194331
      5          6           0        0.302747    0.137698   -0.288197
      6          6           0       -0.659054    0.524272    0.874815
      7          8           0       -2.003679    0.606319    0.403689
      8          6           0       -2.693282   -0.630151    0.319509
      9          6           0       -4.158422   -0.384566    0.036224
     10          6           0       -4.900773   -1.331237   -0.678196
     11          6           0       -6.265913   -1.145405   -0.898620
     12          6           0       -6.902191   -0.001652   -0.414541
     13          6           0       -6.165292    0.951189    0.291295
     14          6           0       -4.802565    0.760040    0.519113
     15          6           0       -0.235568    1.946780    1.248466
     16          6           0        0.147871    2.618386   -0.094473
     17          6           0        0.435984    1.455026   -1.089587
     18          6           0        2.727390    0.433117    0.532206
     19          6           0        3.834598    0.372195   -0.539530
     20          8           0        3.537591    0.587647   -1.714832
     21          7           0        5.122364    0.182192   -0.128319
     22          6           0        5.503804   -0.306447    1.196257
     23          6           0        6.190530    0.306050   -1.113574
     24          1           0        1.058447   -3.736607    0.268409
     25          1           0        0.499663   -2.727671   -1.081587
     26          1           0       -0.230039   -2.534075    0.518706
     27          1           0       -0.155962   -0.629514   -0.911328
     28          1           0       -0.596351   -0.182654    1.716148
     29          1           0       -2.271736   -1.276974   -0.465627
     30          1           0       -2.582451   -1.176995    1.273243
     31          1           0       -4.407729   -2.218830   -1.068154
     32          1           0       -6.828784   -1.888409   -1.456280
     33          1           0       -7.963318    0.148668   -0.590736
     34          1           0       -6.653013    1.846750    0.665902
     35          1           0       -4.223972    1.501294    1.059245
     36          1           0       -1.039442    2.462590    1.779919
     37          1           0        0.624332    1.896816    1.925178
     38          1           0       -0.676240    3.235889   -0.460742
     39          1           0        1.009652    3.283740    0.021886
     40          1           0        1.409485    1.514213   -1.579889
     41          1           0       -0.324950    1.446324   -1.873823
     42          1           0        2.400673    1.472689    0.553217
     43          1           0        3.083737    0.175635    1.528885
     44          1           0        4.769970   -1.026539    1.558895
     45          1           0        6.461164   -0.826092    1.106465
     46          1           0        5.632720    0.508840    1.920314
     47          1           0        6.604178   -0.677193   -1.371254
     48          1           0        5.783170    0.763102   -2.013452
     49          1           0        6.998024    0.928639   -0.712485
 ---------------------------------------------------------------------
                    Distance matrix (angstroms):
                    1          2          3          4          5
     1  C    0.000000
     2  C    1.520254   0.000000
     3  O    2.390792   1.232362   0.000000
     4  N    2.493832   1.373312   2.266839   0.000000
     5  C    2.922305   2.509252   3.631322   1.477372   0.000000
     6  C    3.648891   3.405208   4.461631   2.526104   1.557914
     7  O    4.327743   4.489860   5.643118   3.736802   2.453143
     8  C    4.015906   4.643887   5.813459   4.284542   3.151998
     9  C    5.406483   6.134021   7.312280   5.744822   4.503336
    10  C    5.821099   6.803946   7.972807   6.606879   5.420931
    11  C    7.208476   8.196314   9.367254   7.959152   6.720585
    12  C    8.097664   8.921943  10.103413   8.518276   7.207393
    13  C    7.807360   8.424819   9.594313   7.869898   6.544701
    14  C    6.549429   7.079491   8.239730   6.502394   5.206080
    15  C    4.945052   4.328889   5.195262   3.163961   2.433905
    16  C    5.390938   4.706894   5.591189   3.370564   2.493056
    17  C    4.343836   3.785060   4.763331   2.543956   1.547686
    18  C    3.802691   2.385592   2.623907   1.464290   2.576670
    19  C    4.446696   3.074631   3.017176   2.495238   3.548539
    20  O    4.693301   3.576329   3.775041   2.910415   3.563981
    21  N    5.298194   3.870823   3.367882   3.603110   4.822473
    22  C    5.513267   4.057984   3.237606   4.047215   5.426957
    23  C    6.371592   5.061670   4.538716   4.842782   5.947737
    24  H    1.089446   2.114648   2.462558   3.361645   3.986368
    25  H    1.095298   2.171453   3.079976   2.853519   2.979695
    26  H    1.093615   2.187701   3.154000   2.806746   2.841360
    27  H    2.455445   2.598805   3.811782   2.072560   1.089642
    28  H    3.349296   3.184145   4.125801   2.669347   2.220000
    29  H    3.351033   4.192037   5.387004   4.005317   2.942914
    30  H    3.860742   4.525700   5.587340   4.370564   3.534244
    31  H    5.249509   6.395320   7.530069   6.382971   5.324485
    32  H    7.720931   8.827993   9.978745   8.698636   7.505216
    33  H    9.157909  10.003579  11.185651   9.596367   8.271607
    34  H    8.699270   9.205946  10.358611   8.555591   7.225909
    35  H    6.592146   6.896282   8.014733   6.177584   4.915911
    36  H    5.773572   5.291391   6.161790   4.205960   3.388761
    37  H    5.026197   4.154350   4.799721   3.044907   2.845513
    38  H    6.153319   5.641730   6.598264   4.345464   3.253763
    39  H    6.034234   5.119837   5.822723   3.749175   3.239359
    40  H    4.592746   3.826230   4.621399   2.628403   2.188180
    41  H    4.701172   4.452286   5.521439   3.375554   2.149585
    42  H    4.577513   3.294134   3.686652   2.089740   2.625161
    43  H    4.065090   2.598712   2.474621   2.093141   3.322218
    44  H    4.680488   3.278504   2.335150   3.518944   4.972251
    45  H    6.166711   4.803109   3.828811   4.978421   6.387493
    46  H    6.209058   4.713419   4.001737   4.497504   5.781339
    47  H    6.396377   5.209464   4.541957   5.264936   6.445548
    48  H    6.487988   5.269796   4.976636   4.888683   5.779504
    49  H    7.318635   5.940685   5.357085   5.651875   6.755172
                    6          7          8          9         10
     6  C    0.000000
     7  O    1.427133   0.000000
     8  C    2.403984   1.418272   0.000000
     9  C    3.711441   2.399959   1.512348   0.000000
    10  C    4.883333   3.649350   2.521895   1.399167   0.000000
    11  C    6.113081   4.788652   3.809595   2.427824   1.395252
    12  C    6.396546   5.003454   4.318420   2.806792   2.417227
    13  C    5.553504   4.177390   3.815270   2.424217   2.783593
    14  C    4.165428   2.805480   2.534077   1.399366   2.411770
    15  C    1.530518   2.374174   3.680203   4.721598   6.018435
    16  C    2.444578   2.987599   4.335496   5.251568   6.436541
    17  C    2.433986   2.983644   4.015697   5.075442   6.034358
    18  C    3.404951   4.735982   5.528061   6.951907   7.922556
    19  C    4.713428   5.918611   6.660020   8.049382   8.900990
    20  O    4.931746   5.932466   6.666735   7.952359   8.715659
    21  N    5.877762   7.158450   7.870500   9.299531  10.151655
    22  C    6.226896   7.604184   8.250193   9.731926  10.621628
    23  C    7.135693   8.338903   9.047227  10.435506  11.219949
    24  H    4.633857   5.315630   4.871155   6.205305   6.495704
    25  H    3.968031   4.425862   4.069098   5.332673   5.592626
    26  H    3.108754   3.608476   3.119643   4.503928   4.969421
    27  H    2.185093   2.582753   2.820098   4.120381   4.802083
    28  H    1.100689   2.079807   2.558901   3.943509   5.057685
    29  H    2.764419   2.091496   1.101145   2.146586   2.638175
    30  H    2.598559   2.066715   1.104957   2.154494   3.034225
    31  H    5.035107   3.990895   2.718242   2.155535   1.087649
    32  H    7.022863   5.741497   4.673223   3.408804   2.152459
    33  H    7.459302   6.059342   5.404478   3.892897   3.402492
    34  H    6.141672   4.819101   4.683428   3.405620   3.869954
    35  H    3.700976   2.482022   2.726404   2.146471   3.391164
    36  H    2.172783   2.503898   3.799083   4.568895   5.945194
    37  H    2.152724   3.299508   4.468814   5.625619   6.908304
    38  H    3.022726   3.069849   4.429844   5.047798   6.225159
    39  H    3.335676   4.049015   5.396188   6.337639   7.531351
    40  H    3.359227   4.050746   5.003869   6.100719   6.980615
    41  H    2.918358   2.951407   3.838157   4.657891   5.484754
    42  H    3.219449   4.491244   5.515880   6.836549   7.917670
    43  H    3.815474   5.228131   5.956998   7.415573   8.419873
    44  H    5.687467   7.062793   7.575839   9.080024   9.930795
    45  H    7.250838   8.613899   9.190298  10.682508  11.512332
    46  H    6.378066   7.786157   8.554659  10.010716  11.004209
    47  H    7.696940   8.882175   9.450061  10.858185  11.544349
    48  H    7.064091   8.154886   8.901354  10.215359  10.968856
    49  H    7.830318   9.076364   9.869967  11.258391  12.111548
                   11         12         13         14         15
    11  C    0.000000
    12  C    1.395476   0.000000
    13  C    2.412826   1.396113   0.000000
    14  C    2.789637   2.420809   1.394799   0.000000
    15  C    7.108913   7.141837   6.088432   4.774701   0.000000
    16  C    7.479933   7.527976   6.540978   5.323228   1.549698
    17  C    7.191254   7.511751   6.762953   5.523886   2.481793
    18  C    9.242213   9.685772   8.911017   7.537060   3.403428
    19  C   10.220195  10.744023  10.051035   8.710438   4.716195
    20  O    9.988912  10.536939   9.914769   8.635880   4.986492
    21  N   11.491246  12.029366  11.321599   9.962795   5.806612
    22  C   11.984098  12.513844  11.771508  10.383504   6.166048
    23  C   12.542563  13.114979  12.452156  11.122945   7.040310
    24  H    7.856369   8.819754   8.611525   7.391492   5.910658
    25  H    6.950544   7.916033   7.735660   6.545227   5.274486
    26  H    6.353660   7.197342   6.886654   5.635529   4.539894
    27  H    6.131705   6.793572   6.329058   5.056475   3.362787
    28  H    6.317265   6.658545   5.859088   4.473679   2.209837
    29  H    4.019732   4.803142   4.549442   3.394736   4.180513
    30  H    4.276199   4.784370   4.281371   3.041336   3.907230
    31  H    2.152633   3.400798   3.871195   3.398379   6.334506
    32  H    1.086215   2.156493   3.399641   3.875825   8.092887
    33  H    2.156525   1.086108   2.157525   3.405275   8.144568
    34  H    3.398613   2.155467   1.086385   2.150963   6.444609
    35  H    3.873987   3.406428   2.158955   1.084421   4.017665
    36  H    6.892619   6.727553   5.547492   4.318495   1.093030
    37  H    8.043906   8.107220   7.047182   5.720183   1.095383
    38  H    7.115611   7.017569   5.992921   4.910856   2.185723
    39  H    8.567293   8.577968   7.549384   6.355955   2.200576
    40  H    8.151652   8.528765   7.822760   6.600315   3.300440
    41  H    6.554626   6.891026   6.248399   5.123101   3.163405
    42  H    9.169076   9.468554   8.585821   7.238485   2.767291
    43  H    9.749558  10.174826   9.363634   7.972134   3.772715
    44  H   11.306822  11.882095  11.184729   9.793183   5.830300
    45  H   12.888011  13.474881  12.776957  11.390013   7.249497
    46  H   12.339383  12.760727  11.918157  10.531934   6.079133
    47  H   12.887275  13.557052  12.979794  11.651305   7.780122
    48  H   12.250129  12.808581  12.170168  10.884470   6.947403
    49  H   13.426404  13.934496  13.201552  11.865882   7.563517
                   16         17         18         19         20
    16  C    0.000000
    17  C    1.557776   0.000000
    18  C    3.438320   2.987483   0.000000
    19  C    4.339978   3.609108   1.542154   0.000000
    20  O    4.270792   3.280738   2.393634   1.231246   0.000000
    21  N    5.539113   4.950384   2.497030   1.365114   2.278799
    22  C    6.237520   5.831867   2.948965   2.501951   3.624891
    23  C    6.549748   5.868179   3.836415   2.425761   2.734757
    24  H    6.430145   5.402283   4.499062   5.024145   5.364566
    25  H    5.447796   4.183189   4.190188   4.585279   4.541072
    26  H    5.202563   4.352369   4.189367   5.107597   5.378557
    27  H    3.362800   2.174278   3.395098   4.131129   3.971075
    28  H    3.417315   3.408792   3.581640   5.002924   5.427197
    29  H    4.600661   3.896780   5.376927   6.325546   6.227809
    30  H    4.871368   4.649887   5.597857   6.845776   7.035444
    31  H    6.715669   6.079411   7.778425   8.656143   8.451190
    32  H    8.416617   8.005615  10.033146  10.938852  10.661118
    33  H    8.493360   8.514910  10.753285  11.800144  11.564048
    34  H    6.886626   7.313622   9.487265  10.659145  10.540476
    35  H    4.657464   5.131745   7.052674   8.292858   8.292895
    36  H    2.224259   3.380256   4.456969   5.788425   6.056230
    37  H    2.196968   3.052779   2.916443   4.324935   4.842590
    38  H    1.092988   2.191794   4.519532   5.343651   5.132475
    39  H    1.094944   2.215550   3.367061   4.095437   4.083575
    40  H    2.239939   1.091606   2.714146   2.875365   2.324988
    41  H    2.182516   1.092759   4.016509   4.498436   3.960029
    42  H    2.609069   2.561078   1.089906   2.112185   2.686992
    43  H    4.149896   3.937491   1.089334   2.209246   3.301127
    44  H    6.114156   5.652969   2.712346   2.689752   3.852485
    45  H    7.291389   6.806536   3.982016   3.323257   4.301820
    46  H    6.212336   6.079543   3.220795   3.050041   4.196434
    47  H    7.360361   6.532405   4.459309   3.076289   3.334940
    48  H    6.235475   5.470346   3.990872   2.474305   2.272132
    49  H    7.082498   6.593911   4.475837   3.216645   3.618780
                   21         22         23         24         25
    21  N    0.000000
    22  C    1.462452   0.000000
    23  C    1.458440   2.486376   0.000000
    24  H    5.659488   5.691054   6.677666   0.000000
    25  H    5.544852   6.007689   6.449066   1.775579   0.000000
    26  H    6.036967   6.188567   7.207937   1.780148   1.769430
    27  H    5.397471   6.048077   6.418266   3.538445   2.204789
    28  H    6.019873   6.123520   7.369390   4.179101   3.937725
    29  H    7.544247   8.010169   8.633409   4.204607   3.188194
    30  H    7.948329   8.133345   9.212031   4.562614   4.177230
    31  H    9.872734  10.345204  10.894961   5.828304   4.933720
    32  H   12.201672  12.713429  13.207408   8.282439   7.385857
    33  H   13.093893  13.592787  14.164376   9.860311   8.951889
    34  H   11.918936  12.357416  13.057446   9.528824   8.668323
    35  H    9.513377   9.895268  10.705681   7.480974   6.691789
    36  H    6.841743   7.128976   8.080561   6.716833   6.123387
    37  H    5.233457   5.403234   6.538127   5.888021   5.517432
    38  H    6.561965   7.313463   7.494176   7.221946   6.110012
    39  H    5.153306   5.870774   6.082549   7.024844   6.133091
    40  H    4.203190   5.271170   4.953332   5.577683   4.366882
    41  H    5.858160   6.817035   6.658054   5.776307   4.327801
    42  H    3.088280   3.634315   4.301425   5.386970   4.891773
    43  H    2.627236   2.489933   4.080657   4.582165   4.682007
    44  H    2.105209   1.090207   3.306943   4.773387   5.301086
    45  H    2.081757   1.092992   2.506703   6.193770   6.628957
    46  H    2.136366   1.097985   3.091400   6.455740   6.770132
    47  H    2.116413   2.817869   1.097393   6.542449   6.446198
    48  H    2.080348   3.394733   1.088402   6.912111   6.400728
    49  H    2.101555   2.720556   1.095690   7.616118   7.465490
                   26         27         28         29         30
    26  H    0.000000
    27  H    2.382821   0.000000
    28  H    2.664063   2.701343   0.000000
    29  H    2.591861   2.257067   2.960506   0.000000
    30  H    2.818658   3.310579   2.264834   1.769240   0.000000
    31  H    4.480022   4.541810   5.140521   2.410933   3.146299
    32  H    6.918157   6.812367   7.198411   4.703396   5.097818
    33  H    8.260241   7.852589   7.726816   5.868749   5.846839
    34  H    7.776110   7.129601   6.473380   5.498509   5.106992
    35  H    5.703322   4.997220   4.053003   3.722262   3.148590
    36  H    5.216556   4.193382   2.682855   4.532699   3.985496
    37  H    4.726617   3.877753   2.420321   4.916920   4.489631
    38  H    5.869489   3.926201   4.053599   4.786603   5.110175
    39  H    5.969140   4.188449   4.179193   5.639618   5.862359
    40  H    4.845697   2.737364   4.215044   4.752230   5.596295
    41  H    4.645081   2.294353   3.951597   3.631714   4.677835
    42  H    4.793328   3.619466   3.615898   5.516348   5.689533
    43  H    4.398193   4.135040   3.702227   5.896545   5.831007
    44  H    5.324918   5.524892   5.434544   7.331237   7.359506
    45  H    6.930719   6.920729   7.112963   8.884723   9.051957
    46  H    6.752465   6.543920   6.270660   8.447619   8.411289
    47  H    7.329835   6.775935   7.850111   8.942133   9.572738
    48  H    7.310396   6.198979   7.450011   8.452170   9.195105
    49  H    8.108706   7.324404   8.050327   9.531743  10.008112
                   31         32         33         34         35
    31  H    0.000000
    32  H    2.474132   0.000000
    33  H    4.298277   2.487170   0.000000
    34  H    4.957539   4.299531   2.485864   0.000000
    35  H    4.289396   4.960141   4.305200   2.484814   0.000000
    36  H    6.432151   7.932254   7.675565   5.756081   3.403629
    37  H    7.156830   9.017268   9.117762   7.385664   4.940883
    38  H    6.636785   8.068663   7.915133   6.238658   4.231499
    39  H    7.798364   9.506691   9.524609   7.822796   5.625304
    40  H    6.930906   8.914157   9.523265   8.376039   6.221015
    41  H    5.545407   7.320836   7.853336   6.830441   4.879373
    42  H    7.912679  10.025863  10.510660   9.062111   6.644005
    43  H    8.282520  10.556020  11.248597   9.916737   7.441811
    44  H    9.620452  12.015207  12.966829  11.812610   9.355778
    45  H   11.171460  13.576410  14.556659  13.391035  10.935771
    46  H   10.825052  13.131537  13.830667  12.421867   9.943882
    47  H   11.123426  13.487726  14.611749  13.648202  11.309375
    48  H   10.660203  12.899703  13.833567  12.767611  10.494250
    49  H   11.837409  14.130450  14.982154  13.751134  11.375419
                   36         37         38         39         40
    36  H    0.000000
    37  H    1.763333   0.000000
    38  H    2.398014   3.029392   0.000000
    39  H    2.822012   2.386326   1.754267   0.000000
    40  H    4.264384   3.612249   2.926928   2.420078   0.000000
    41  H    3.859161   3.941635   2.307108   2.958204   1.760475
    42  H    3.784058   2.284195   3.688412   2.344602   2.352513
    43  H    4.721630   3.027901   5.240343   4.029043   3.776160
    44  H    6.780276   5.085910   7.204750   5.922913   5.253594
    45  H    8.217546   6.492544   8.360524   6.912743   6.181665
    46  H    6.953747   5.197158   7.273871   5.716367   5.576550
    47  H    8.843815   7.297297   8.315391   6.994895   5.641864
    48  H    7.989115   6.588757   7.088693   5.769115   4.458841
    49  H    8.553709   6.965528   8.017550   6.476604   5.685689
                   41         42         43         44         45
    41  H    0.000000
    42  H    3.649690   0.000000
    43  H    4.981187   1.760924   0.000000
    44  H    6.622448   3.587631   2.071112   0.000000
    45  H    7.752247   4.698730   3.548085   1.762104   0.000000
    46  H    7.125180   3.639243   2.600299   1.797874   1.769382
    47  H    7.264621   5.098533   4.640218   3.474498   2.486306
    48  H    6.147798   4.304949   4.492239   4.122020   3.566384
    49  H    7.432540   4.799336   4.573007   3.734449   2.583772
                   46         47         48         49
    46  H    0.000000
    47  H    3.631091   0.000000
    48  H    3.944845   1.777898   0.000000
    49  H    2.995316   1.779828   1.787677   0.000000
 Stoichiometry    C18H26N2O3
 Framework group  C1[X(C18H26N2O3)]
 Deg. of freedom   141
 Full point group                 C1      NOp   1
 Largest Abelian subgroup         C1      NOp   1
 Largest concise Abelian subgroup C1      NOp   1
                         Standard orientation:                         
 ---------------------------------------------------------------------
 Center     Atomic      Atomic             Coordinates (Angstroms)
 Number     Number       Type             X           Y           Z
 ---------------------------------------------------------------------
      1          6           0        0.706449    2.742807    0.006093
      2          6           0        1.810398    1.762083   -0.355361
      3          8           0        2.892719    2.174140   -0.776675
      4          7           0        1.584131    0.417145   -0.194331
      5          6           0        0.302747   -0.137698    0.288197
      6          6           0       -0.659054   -0.524272   -0.874815
      7          8           0       -2.003679   -0.606319   -0.403689
      8          6           0       -2.693282    0.630151   -0.319509
      9          6           0       -4.158422    0.384566   -0.036224
     10          6           0       -4.900773    1.331237    0.678196
     11          6           0       -6.265913    1.145405    0.898620
     12          6           0       -6.902191    0.001652    0.414541
     13          6           0       -6.165292   -0.951189   -0.291295
     14          6           0       -4.802565   -0.760040   -0.519113
     15          6           0       -0.235568   -1.946780   -1.248466
     16          6           0        0.147871   -2.618386    0.094473
     17          6           0        0.435984   -1.455026    1.089587
     18          6           0        2.727390   -0.433117   -0.532206
     19          6           0        3.834598   -0.372195    0.539530
     20          8           0        3.537591   -0.587647    1.714832
     21          7           0        5.122364   -0.182192    0.128319
     22          6           0        5.503804    0.306447   -1.196257
     23          6           0        6.190530   -0.306050    1.113574
     24          1           0        1.058447    3.736607   -0.268409
     25          1           0        0.499663    2.727671    1.081587
     26          1           0       -0.230039    2.534075   -0.518706
     27          1           0       -0.155962    0.629514    0.911328
     28          1           0       -0.596351    0.182654   -1.716148
     29          1           0       -2.271736    1.276974    0.465627
     30          1           0       -2.582451    1.176995   -1.273243
     31          1           0       -4.407729    2.218830    1.068154
     32          1           0       -6.828784    1.888409    1.456280
     33          1           0       -7.963318   -0.148668    0.590736
     34          1           0       -6.653013   -1.846750   -0.665902
     35          1           0       -4.223972   -1.501294   -1.059245
     36          1           0       -1.039442   -2.462590   -1.779919
     37          1           0        0.624332   -1.896816   -1.925178
     38          1           0       -0.676240   -3.235889    0.460742
     39          1           0        1.009652   -3.283740   -0.021886
     40          1           0        1.409485   -1.514213    1.579889
     41          1           0       -0.324950   -1.446324    1.873823
     42          1           0        2.400673   -1.472689   -0.553217
     43          1           0        3.083737   -0.175635   -1.528885
     44          1           0        4.769970    1.026539   -1.558895
     45          1           0        6.461164    0.826092   -1.106465
     46          1           0        5.632720   -0.508840   -1.920314
     47          1           0        6.604178    0.677193    1.371254
     48          1           0        5.783170   -0.763102    2.013452
     49          1           0        6.998024   -0.928639    0.712485
 ---------------------------------------------------------------------
 Rotational constants (GHZ):      0.6850351      0.1018341      0.0956500
 Standard basis: 6-31G(d,p) (6D, 7F)
 There are   475 symmetry adapted basis functions of A   symmetry.
 Integral buffers will be    131072 words long.
 Raffenetti 2 integral format.
 Two-electron integral symmetry is turned on.
   475 basis functions,   826 primitive gaussians,   475 cartesian basis functions
    86 alpha electrons       86 beta electrons
       nuclear repulsion energy      1970.1870304137 Hartrees.
 NAtoms=   49 NActive=   49 NUniq=   49 SFac= 1.00D+00 NAtFMM=   60 NAOKFM=F Big=F
 One-electron integrals computed using PRISM.
 NBasis=   475 RedAO= T  NBF=   475
 NBsUse=   475 1.00D-06 NBFU=   475
 Harris functional with IExCor=  402 diagonalized for initial guess.
 ExpMin= 1.61D-01 ExpMax= 5.48D+03 ExpMxC= 8.25D+02 IAcc=1 IRadAn=         1 AccDes= 0.00D+00
 HarFok:  IExCor=  402 AccDes= 0.00D+00 IRadAn=         1 IDoV= 1
 ScaDFX=  1.000000  1.000000  1.000000  1.000000
 FoFCou: FMM=F IPFlag=           0 FMFlag=      100000 FMFlg1=           0
         NFxFlg=           0 DoJE=T BraDBF=F KetDBF=T FulRan=T
         Omega=  0.000000  0.000000  1.000000  0.000000  0.000000 ICntrl=     500 IOpCl=  0
         NMat0=    1 NMatS0=    1 NMatT0=    0 NMatD0=    1 NMtDS0=    0 NMtDT0=    0
         I1Cent=           4 NGrid=           0.
 Petite list used in FoFCou.
 Initial guess orbital symmetries:
       Occupied  (A) (A) (A) (A) (A) (A) (A) (A) (A) (A) (A) (A)
                 (A) (A) (A) (A) (A) (A) (A) (A) (A) (A) (A) (A)
                 (A) (A) (A) (A) (A) (A) (A) (A) (A) (A) (A) (A)
                 (A) (A) (A) (A) (A) (A) (A) (A) (A) (A) (A) (A)
                 (A) (A) (A) (A) (A) (A) (A) (A) (A) (A) (A) (A)
                 (A) (A) (A) (A) (A) (A) (A) (A) (A) (A) (A) (A)
                 (A) (A) (A) (A) (A) (A) (A) (A) (A) (A) (A) (A)
                 (A) (A)
       Virtual   (A) (A) (A) (A) (A) (A) (A) (A) (A) (A) (A) (A)
                 (A) (A) (A) (A) (A) (A) (A) (A) (A) (A) (A) (A)
                 (A) (A) (A) (A) (A) (A) (A) (A) (A) (A) (A) (A)
                 (A) (A) (A) (A) (A) (A) (A) (A) (A) (A) (A) (A)
                 (A) (A) (A) (A) (A) (A) (A) (A) (A) (A) (A) (A)
                 (A) (A) (A) (A) (A) (A) (A) (A) (A) (A) (A) (A)
                 (A) (A) (A) (A) (A) (A) (A) (A) (A) (A) (A) (A)
                 (A) (A) (A) (A) (A) (A) (A) (A) (A) (A) (A) (A)
                 (A) (A) (A) (A) (A) (A) (A) (A) (A) (A) (A) (A)
                 (A) (A) (A) (A) (A) (A) (A) (A) (A) (A) (A) (A)
                 (A) (A) (A) (A) (A) (A) (A) (A) (A) (A) (A) (A)
                 (A) (A) (A) (A) (A) (A) (A) (A) (A) (A) (A) (A)
                 (A) (A) (A) (A) (A) (A) (A) (A) (A) (A) (A) (A)
                 (A) (A) (A) (A) (A) (A) (A) (A) (A) (A) (A) (A)
                 (A) (A) (A) (A) (A) (A) (A) (A) (A) (A) (A) (A)
                 (A) (A) (A) (A) (A) (A) (A) (A) (A) (A) (A) (A)
                 (A) (A) (A) (A) (A) (A) (A) (A) (A) (A) (A) (A)
                 (A) (A) (A) (A) (A) (A) (A) (A) (A) (A) (A) (A)
                 (A) (A) (A) (A) (A) (A) (A) (A) (A) (A) (A) (A)
                 (A) (A) (A) (A) (A) (A) (A) (A) (A) (A) (A) (A)
                 (A) (A) (A) (A) (A) (A) (A) (A) (A) (A) (A) (A)
                 (A) (A) (A) (A) (A) (A) (A) (A) (A) (A) (A) (A)
                 (A) (A) (A) (A) (A) (A) (A) (A) (A) (A) (A) (A)
                 (A) (A) (A) (A) (A) (A) (A) (A) (A) (A) (A) (A)
                 (A) (A) (A) (A) (A) (A) (A) (A) (A) (A) (A) (A)
                 (A) (A) (A) (A) (A) (A) (A) (A) (A) (A) (A) (A)
                 (A) (A) (A) (A) (A) (A) (A) (A) (A) (A) (A) (A)
                 (A) (A) (A) (A) (A) (A) (A) (A) (A) (A) (A) (A)
                 (A) (A) (A) (A) (A) (A) (A) (A) (A) (A) (A) (A)
                 (A) (A) (A) (A) (A) (A) (A) (A) (A) (A) (A) (A)
                 (A) (A) (A) (A) (A) (A) (A) (A) (A) (A) (A) (A)
                 (A) (A) (A) (A) (A) (A) (A) (A) (A) (A) (A) (A)
                 (A) (A) (A) (A) (A)
 The electronic state of the initial guess is 1-A.
 Requested convergence on RMS density matrix=1.00D-08 within 128 cycles.
 Requested convergence on MAX density matrix=1.00D-06.
 Requested convergence on             energy=1.00D-06.
 No special actions if energy rises.
 Integral accuracy reduced to 1.0D-05 until final iterations.
 Initial convergence to 1.0D-05 achieved.  Increase integral accuracy.
 SCF Done:  E(RB3LYP) =  -1036.79132399     A.U. after   15 cycles
             Convg  =    0.7295D-08             -V/T =  2.0095

 **********************************************************************

            Population analysis using the SCF density.

 **********************************************************************

 Orbital symmetries:
       Occupied  (A) (A) (A) (A) (A) (A) (A) (A) (A) (A) (A) (A)
                 (A) (A) (A) (A) (A) (A) (A) (A) (A) (A) (A) (A)
                 (A) (A) (A) (A) (A) (A) (A) (A) (A) (A) (A) (A)
                 (A) (A) (A) (A) (A) (A) (A) (A) (A) (A) (A) (A)
                 (A) (A) (A) (A) (A) (A) (A) (A) (A) (A) (A) (A)
                 (A) (A) (A) (A) (A) (A) (A) (A) (A) (A) (A) (A)
                 (A) (A) (A) (A) (A) (A) (A) (A) (A) (A) (A) (A)
                 (A) (A)
       Virtual   (A) (A) (A) (A) (A) (A) (A) (A) (A) (A) (A) (A)
                 (A) (A) (A) (A) (A) (A) (A) (A) (A) (A) (A) (A)
                 (A) (A) (A) (A) (A) (A) (A) (A) (A) (A) (A) (A)
                 (A) (A) (A) (A) (A) (A) (A) (A) (A) (A) (A) (A)
                 (A) (A) (A) (A) (A) (A) (A) (A) (A) (A) (A) (A)
                 (A) (A) (A) (A) (A) (A) (A) (A) (A) (A) (A) (A)
                 (A) (A) (A) (A) (A) (A) (A) (A) (A) (A) (A) (A)
                 (A) (A) (A) (A) (A) (A) (A) (A) (A) (A) (A) (A)
                 (A) (A) (A) (A) (A) (A) (A) (A) (A) (A) (A) (A)
                 (A) (A) (A) (A) (A) (A) (A) (A) (A) (A) (A) (A)
                 (A) (A) (A) (A) (A) (A) (A) (A) (A) (A) (A) (A)
                 (A) (A) (A) (A) (A) (A) (A) (A) (A) (A) (A) (A)
                 (A) (A) (A) (A) (A) (A) (A) (A) (A) (A) (A) (A)
                 (A) (A) (A) (A) (A) (A) (A) (A) (A) (A) (A) (A)
                 (A) (A) (A) (A) (A) (A) (A) (A) (A) (A) (A) (A)
                 (A) (A) (A) (A) (A) (A) (A) (A) (A) (A) (A) (A)
                 (A) (A) (A) (A) (A) (A) (A) (A) (A) (A) (A) (A)
                 (A) (A) (A) (A) (A) (A) (A) (A) (A) (A) (A) (A)
                 (A) (A) (A) (A) (A) (A) (A) (A) (A) (A) (A) (A)
                 (A) (A) (A) (A) (A) (A) (A) (A) (A) (A) (A) (A)
                 (A) (A) (A) (A) (A) (A) (A) (A) (A) (A) (A) (A)
                 (A) (A) (A) (A) (A) (A) (A) (A) (A) (A) (A) (A)
                 (A) (A) (A) (A) (A) (A) (A) (A) (A) (A) (A) (A)
                 (A) (A) (A) (A) (A) (A) (A) (A) (A) (A) (A) (A)
                 (A) (A) (A) (A) (A) (A) (A) (A) (A) (A) (A) (A)
                 (A) (A) (A) (A) (A) (A) (A) (A) (A) (A) (A) (A)
                 (A) (A) (A) (A) (A) (A) (A) (A) (A) (A) (A) (A)
                 (A) (A) (A) (A) (A) (A) (A) (A) (A) (A) (A) (A)
                 (A) (A) (A) (A) (A) (A) (A) (A) (A) (A) (A) (A)
                 (A) (A) (A) (A) (A) (A) (A) (A) (A) (A) (A) (A)
                 (A) (A) (A) (A) (A) (A) (A) (A) (A) (A) (A) (A)
                 (A) (A) (A) (A) (A) (A) (A) (A) (A) (A) (A) (A)
                 (A) (A) (A) (A) (A)
 The electronic state is 1-A.
 Alpha  occ. eigenvalues --  -19.15670 -19.11021 -19.10285 -14.36452 -14.36105
 Alpha  occ. eigenvalues --  -10.28453 -10.27815 -10.24371 -10.24000 -10.22691
 Alpha  occ. eigenvalues --  -10.22573 -10.21300 -10.20828 -10.19702 -10.19172
 Alpha  occ. eigenvalues --  -10.19018 -10.18963 -10.18869 -10.18806 -10.18521
 Alpha  occ. eigenvalues --  -10.18513 -10.18212 -10.17562  -1.04092  -1.03262
 Alpha  occ. eigenvalues --   -1.02064  -0.93045  -0.92411  -0.85416  -0.82461
 Alpha  occ. eigenvalues --   -0.76686  -0.76257  -0.74222  -0.72846  -0.71773
 Alpha  occ. eigenvalues --   -0.71224  -0.70061  -0.67344  -0.66709  -0.60673
 Alpha  occ. eigenvalues --   -0.59103  -0.57948  -0.57172  -0.55702  -0.52361
 Alpha  occ. eigenvalues --   -0.51823  -0.51275  -0.50970  -0.49404  -0.49043
 Alpha  occ. eigenvalues --   -0.46875  -0.46418  -0.46377  -0.45615  -0.45230
 Alpha  occ. eigenvalues --   -0.44810  -0.43909  -0.42879  -0.41997  -0.41593
 Alpha  occ. eigenvalues --   -0.40872  -0.40591  -0.40044  -0.39962  -0.39628
 Alpha  occ. eigenvalues --   -0.39040  -0.37773  -0.37498  -0.37026  -0.36287
 Alpha  occ. eigenvalues --   -0.35772  -0.35273  -0.34549  -0.34279  -0.33879
 Alpha  occ. eigenvalues --   -0.33823  -0.33504  -0.32530  -0.31864  -0.27573
 Alpha  occ. eigenvalues --   -0.25119  -0.24868  -0.24679  -0.24175  -0.23400
 Alpha  occ. eigenvalues --   -0.22585
 Alpha virt. eigenvalues --   -0.00281  -0.00016   0.02472   0.02746   0.06932
 Alpha virt. eigenvalues --    0.08052   0.09166   0.09612   0.10184   0.11947
 Alpha virt. eigenvalues --    0.12416   0.13231   0.13530   0.13865   0.14114
 Alpha virt. eigenvalues --    0.14597   0.14919   0.15160   0.15373   0.16134
 Alpha virt. eigenvalues --    0.16760   0.17113   0.17246   0.17464   0.17566
 Alpha virt. eigenvalues --    0.18050   0.18277   0.18559   0.19215   0.19481
 Alpha virt. eigenvalues --    0.20273   0.21036   0.21628   0.22255   0.22762
 Alpha virt. eigenvalues --    0.23023   0.23825   0.25092   0.25784   0.26193
 Alpha virt. eigenvalues --    0.27814   0.28197   0.28839   0.30438   0.30640
 Alpha virt. eigenvalues --    0.32125   0.33142   0.33783   0.34752   0.35363
 Alpha virt. eigenvalues --    0.36444   0.38946   0.41988   0.46442   0.48067
 Alpha virt. eigenvalues --    0.49424   0.50743   0.51189   0.51348   0.52104
 Alpha virt. eigenvalues --    0.53054   0.53544   0.54122   0.54601   0.54838
 Alpha virt. eigenvalues --    0.55548   0.55857   0.56200   0.56807   0.57963
 Alpha virt. eigenvalues --    0.59216   0.59568   0.59778   0.60178   0.60679
 Alpha virt. eigenvalues --    0.60967   0.61226   0.61680   0.61879   0.62628
 Alpha virt. eigenvalues --    0.63428   0.63822   0.64405   0.64663   0.65782
 Alpha virt. eigenvalues --    0.66198   0.66615   0.67390   0.68453   0.69289
 Alpha virt. eigenvalues --    0.70215   0.70907   0.71476   0.73584   0.74841
 Alpha virt. eigenvalues --    0.75211   0.75667   0.76061   0.76741   0.78318
 Alpha virt. eigenvalues --    0.78854   0.80630   0.81098   0.81586   0.82204
 Alpha virt. eigenvalues --    0.82393   0.82989   0.83109   0.83666   0.84334
 Alpha virt. eigenvalues --    0.84519   0.84659   0.85221   0.86136   0.86711
 Alpha virt. eigenvalues --    0.87706   0.88123   0.88463   0.89051   0.89730
 Alpha virt. eigenvalues --    0.90560   0.90964   0.91558   0.92007   0.92413
 Alpha virt. eigenvalues --    0.93381   0.93696   0.94523   0.95121   0.96354
 Alpha virt. eigenvalues --    0.96894   0.98021   0.98709   1.00247   1.00525
 Alpha virt. eigenvalues --    1.01190   1.03223   1.03414   1.04884   1.05523
 Alpha virt. eigenvalues --    1.07685   1.08970   1.09248   1.10039   1.10103
 Alpha virt. eigenvalues --    1.12834   1.15422   1.16972   1.18009   1.19322
 Alpha virt. eigenvalues --    1.20961   1.22390   1.22736   1.24053   1.25677
 Alpha virt. eigenvalues --    1.26610   1.26886   1.29280   1.30827   1.32463
 Alpha virt. eigenvalues --    1.33978   1.34834   1.35602   1.36371   1.38153
 Alpha virt. eigenvalues --    1.39535   1.39968   1.40578   1.41842   1.41967
 Alpha virt. eigenvalues --    1.42926   1.43757   1.45338   1.46027   1.47794
 Alpha virt. eigenvalues --    1.51522   1.52414   1.53499   1.57433   1.58149
 Alpha virt. eigenvalues --    1.58898   1.61875   1.62367   1.66164   1.67212
 Alpha virt. eigenvalues --    1.68676   1.69867   1.70106   1.71074   1.71975
 Alpha virt. eigenvalues --    1.72243   1.74702   1.75404   1.76945   1.77438
 Alpha virt. eigenvalues --    1.78322   1.79329   1.79963   1.80040   1.81301
 Alpha virt. eigenvalues --    1.82915   1.83896   1.84881   1.86231   1.86538
 Alpha virt. eigenvalues --    1.86644   1.87341   1.88387   1.89102   1.89368
 Alpha virt. eigenvalues --    1.90339   1.91189   1.91641   1.92525   1.92773
 Alpha virt. eigenvalues --    1.94393   1.94953   1.95318   1.96054   1.96109
 Alpha virt. eigenvalues --    1.96605   1.97095   1.98632   1.99402   1.99819
 Alpha virt. eigenvalues --    2.00604   2.01394   2.02348   2.03674   2.03841
 Alpha virt. eigenvalues --    2.04463   2.04968   2.05538   2.06040   2.06804
 Alpha virt. eigenvalues --    2.07118   2.07483   2.07773   2.09306   2.10759
 Alpha virt. eigenvalues --    2.11699   2.12529   2.12692   2.14141   2.14666
 Alpha virt. eigenvalues --    2.15594   2.16748   2.18029   2.20202   2.22244
 Alpha virt. eigenvalues --    2.23159   2.23722   2.27020   2.27731   2.28066
 Alpha virt. eigenvalues --    2.28980   2.29298   2.30213   2.31062   2.31904
 Alpha virt. eigenvalues --    2.33212   2.33361   2.34093   2.35094   2.36213
 Alpha virt. eigenvalues --    2.37039   2.37368   2.38689   2.39265   2.40299
 Alpha virt. eigenvalues --    2.40799   2.41294   2.42694   2.42975   2.44219
 Alpha virt. eigenvalues --    2.44681   2.45488   2.46686   2.47882   2.49792
 Alpha virt. eigenvalues --    2.50264   2.50904   2.52600   2.52722   2.53397
 Alpha virt. eigenvalues --    2.54184   2.55629   2.56408   2.57622   2.58152
 Alpha virt. eigenvalues --    2.58827   2.59924   2.60423   2.62034   2.62498
 Alpha virt. eigenvalues --    2.64344   2.65252   2.66096   2.66796   2.67719
 Alpha virt. eigenvalues --    2.67872   2.68302   2.70053   2.70713   2.71270
 Alpha virt. eigenvalues --    2.72984   2.73664   2.74737   2.75282   2.76134
 Alpha virt. eigenvalues --    2.76545   2.77481   2.79492   2.80950   2.81210
 Alpha virt. eigenvalues --    2.81505   2.84508   2.85000   2.85851   2.86999
 Alpha virt. eigenvalues --    2.87487   2.88086   2.89531   2.89788   2.91313
 Alpha virt. eigenvalues --    2.93197   2.94298   2.95848   2.99805   3.01605
 Alpha virt. eigenvalues --    3.04662   3.05766   3.06671   3.08896   3.12501
 Alpha virt. eigenvalues --    3.13320   3.14977   3.15375   3.19147   3.19537
 Alpha virt. eigenvalues --    3.23798   3.24866   3.25218   3.26159   3.26428
 Alpha virt. eigenvalues --    3.27968   3.30906   3.35669   3.37049   3.37712
 Alpha virt. eigenvalues --    3.38488   3.41704   3.41830   3.43041   3.43886
 Alpha virt. eigenvalues --    3.44246   3.44693   3.45484   3.46974   3.47593
 Alpha virt. eigenvalues --    3.47750   3.51127   3.51979   3.52079   3.59325
 Alpha virt. eigenvalues --    3.89929   3.98115   4.04009   4.09122   4.13167
 Alpha virt. eigenvalues --    4.15507   4.16104   4.17348   4.26168   4.35161
 Alpha virt. eigenvalues --    4.37000   4.38959   4.43191   4.43757   4.50809
 Alpha virt. eigenvalues --    4.53028   4.54119   4.54952   4.58311   4.66489
 Alpha virt. eigenvalues --    4.73983   4.80753   4.83973   4.88091
          Condensed to atoms (all electrons):
              1          2          3          4          5          6
     1  C    5.171596   0.344130  -0.080137  -0.122632  -0.000491  -0.001031
     2  C    0.344130   4.378384   0.566961   0.268429  -0.029186  -0.000510
     3  O   -0.080137   0.566961   8.098934  -0.104285   0.002150   0.000000
     4  N   -0.122632   0.268429  -0.104285   7.119550   0.234691  -0.053690
     5  C   -0.000491  -0.029186   0.002150   0.234691   5.003590   0.329227
     6  C   -0.001031  -0.000510   0.000000  -0.053690   0.329227   4.867399
     7  O    0.000050   0.000056   0.000000   0.002462  -0.039806   0.187355
     8  C   -0.000620   0.000025   0.000000   0.000090  -0.005213  -0.019893
     9  C    0.000026   0.000000   0.000000  -0.000001  -0.000097   0.003994
    10  C   -0.000001   0.000000   0.000000   0.000000   0.000004  -0.000071
    11  C    0.000000   0.000000   0.000000   0.000000   0.000000   0.000002
    12  C    0.000000   0.000000   0.000000   0.000000   0.000000   0.000000
    13  C    0.000000   0.000000   0.000000   0.000000   0.000000   0.000002
    14  C    0.000000   0.000000   0.000000   0.000000   0.000020   0.000354
    15  C    0.000079  -0.000217   0.000001   0.000976  -0.057221   0.369426
    16  C   -0.000003  -0.000198   0.000001   0.000279  -0.067028  -0.057683
    17  C   -0.000176   0.002692  -0.000075  -0.039574   0.354794  -0.065376
    18  C    0.008167  -0.035664   0.009248   0.264816  -0.033789  -0.002821
    19  C   -0.000172   0.000205   0.006282  -0.051630  -0.001970   0.000048
    20  O   -0.000040   0.001473  -0.000341   0.003091   0.000468   0.000033
    21  N   -0.000011   0.000301  -0.001304   0.001757  -0.000036   0.000002
    22  C   -0.000041  -0.000095  -0.010663   0.000458  -0.000003   0.000000
    23  C    0.000000  -0.000030  -0.000031  -0.000099   0.000001   0.000000
    24  H    0.365245  -0.022809   0.005777   0.004706   0.000361   0.000006
    25  H    0.365301  -0.021532   0.000898   0.002138  -0.003212   0.000083
    26  H    0.355830  -0.019072   0.001773   0.001209   0.000236   0.000301
    27  H    0.008362  -0.011621   0.000115  -0.037767   0.384542  -0.048812
    28  H   -0.000717   0.002521  -0.000107   0.004464  -0.063672   0.367585
    29  H    0.000029  -0.000046   0.000000  -0.000401   0.003311  -0.002772
    30  H   -0.000445   0.000005   0.000000   0.000095  -0.001767  -0.011653
    31  H   -0.000001   0.000000   0.000000   0.000000  -0.000001  -0.000002
    32  H    0.000000   0.000000   0.000000   0.000000   0.000000   0.000000
    33  H    0.000000   0.000000   0.000000   0.000000   0.000000   0.000000
    34  H    0.000000   0.000000   0.000000   0.000000   0.000000   0.000000
    35  H    0.000000   0.000000   0.000000   0.000000   0.000040  -0.000321
    36  H    0.000000   0.000001   0.000000  -0.000078   0.005456  -0.025571
    37  H   -0.000008   0.000046  -0.000007  -0.000144   0.002065  -0.033943
    38  H    0.000000   0.000003   0.000000  -0.000058   0.002779  -0.000554
    39  H    0.000000   0.000005   0.000000   0.000513   0.002672   0.004420
    40  H    0.000010   0.000119  -0.000013  -0.005034  -0.031552   0.004301
    41  H   -0.000006   0.000032   0.000001   0.003897  -0.030025   0.001505
    42  H   -0.000114   0.006140   0.001148  -0.033883  -0.004879  -0.000807
    43  H   -0.000004  -0.007754   0.004992  -0.036402   0.004045   0.000563
    44  H    0.000216  -0.000110   0.023665  -0.000822  -0.000009   0.000000
    45  H    0.000000   0.000005   0.000035   0.000003   0.000000   0.000000
    46  H    0.000000  -0.000008   0.000184  -0.000065   0.000000   0.000000
    47  H    0.000000   0.000005   0.000014   0.000009   0.000000   0.000000
    48  H    0.000000  -0.000005   0.000000  -0.000010   0.000000   0.000000
    49  H    0.000000   0.000000  -0.000001  -0.000001   0.000000   0.000000
              7          8          9         10         11         12
     1  C    0.000050  -0.000620   0.000026  -0.000001   0.000000   0.000000
     2  C    0.000056   0.000025   0.000000   0.000000   0.000000   0.000000
     3  O    0.000000   0.000000   0.000000   0.000000   0.000000   0.000000
     4  N    0.002462   0.000090  -0.000001   0.000000   0.000000   0.000000
     5  C   -0.039806  -0.005213  -0.000097   0.000004   0.000000   0.000000
     6  C    0.187355  -0.019893   0.003994  -0.000071   0.000002   0.000000
     7  O    8.311990   0.218722  -0.039090   0.001538  -0.000075   0.000004
     8  C    0.218722   4.830003   0.357944  -0.053207   0.006089   0.000368
     9  C   -0.039090   0.357944   4.775732   0.529004  -0.020649  -0.034583
    10  C    0.001538  -0.053207   0.529004   4.905413   0.522947  -0.040218
    11  C   -0.000075   0.006089  -0.020649   0.522947   4.817739   0.549803
    12  C    0.000004   0.000368  -0.034583  -0.040218   0.549803   4.806641
    13  C    0.000372   0.006260  -0.025304  -0.046246  -0.029269   0.544540
    14  C    0.001333  -0.060612   0.535534  -0.035308  -0.046230  -0.037999
    15  C   -0.049184   0.004876  -0.000111   0.000002   0.000000   0.000000
    16  C    0.001446  -0.000120   0.000012   0.000000   0.000000   0.000000
    17  C    0.002781  -0.000108  -0.000026  -0.000001   0.000000   0.000000
    18  C   -0.000006   0.000001   0.000000   0.000000   0.000000   0.000000
    19  C    0.000000   0.000000   0.000000   0.000000   0.000000   0.000000
    20  O    0.000000   0.000000   0.000000   0.000000   0.000000   0.000000
    21  N    0.000000   0.000000   0.000000   0.000000   0.000000   0.000000
    22  C    0.000000   0.000000   0.000000   0.000000   0.000000   0.000000
    23  C    0.000000   0.000000   0.000000   0.000000   0.000000   0.000000
    24  H   -0.000001   0.000003   0.000000   0.000000   0.000000   0.000000
    25  H    0.000003  -0.000109   0.000003  -0.000001   0.000000   0.000000
    26  H   -0.000262   0.000840   0.000021  -0.000002   0.000000   0.000000
    27  H   -0.001739   0.001397  -0.000069  -0.000008   0.000000   0.000000
    28  H   -0.034284  -0.009907   0.000186  -0.000005   0.000000   0.000000
    29  H   -0.038572   0.353505  -0.039456  -0.004137   0.000038   0.000012
    30  H   -0.039697   0.353775  -0.027144   0.000040  -0.000329   0.000045
    31  H    0.000060  -0.010419  -0.048480   0.365403  -0.043305   0.004939
    32  H    0.000000  -0.000175   0.003815  -0.038022   0.366058  -0.041538
    33  H    0.000000   0.000008   0.000696   0.004858  -0.041584   0.368719
    34  H    0.000000  -0.000198   0.003702   0.001018   0.004513  -0.041971
    35  H    0.013851  -0.012522  -0.043914   0.006297   0.000311   0.004726
    36  H    0.000454  -0.000037  -0.000061   0.000001   0.000000   0.000000
    37  H    0.003412  -0.000191   0.000002   0.000000   0.000000   0.000000
    38  H    0.001635  -0.000068  -0.000002   0.000000   0.000000   0.000000
    39  H    0.000058   0.000001   0.000000   0.000000   0.000000   0.000000
    40  H    0.000081  -0.000011   0.000000   0.000000   0.000000   0.000000
    41  H    0.002457   0.000230  -0.000025   0.000001   0.000000   0.000000
    42  H   -0.000008   0.000000   0.000000   0.000000   0.000000   0.000000
    43  H   -0.000001   0.000000   0.000000   0.000000   0.000000   0.000000
    44  H    0.000000   0.000000   0.000000   0.000000   0.000000   0.000000
    45  H    0.000000   0.000000   0.000000   0.000000   0.000000   0.000000
    46  H    0.000000   0.000000   0.000000   0.000000   0.000000   0.000000
    47  H    0.000000   0.000000   0.000000   0.000000   0.000000   0.000000
    48  H    0.000000   0.000000   0.000000   0.000000   0.000000   0.000000
    49  H    0.000000   0.000000   0.000000   0.000000   0.000000   0.000000
             13         14         15         16         17         18
     1  C    0.000000   0.000000   0.000079  -0.000003  -0.000176   0.008167
     2  C    0.000000   0.000000  -0.000217  -0.000198   0.002692  -0.035664
     3  O    0.000000   0.000000   0.000001   0.000001  -0.000075   0.009248
     4  N    0.000000   0.000000   0.000976   0.000279  -0.039574   0.264816
     5  C    0.000000   0.000020  -0.057221  -0.067028   0.354794  -0.033789
     6  C    0.000002   0.000354   0.369426  -0.057683  -0.065376  -0.002821
     7  O    0.000372   0.001333  -0.049184   0.001446   0.002781  -0.000006
     8  C    0.006260  -0.060612   0.004876  -0.000120  -0.000108   0.000001
     9  C   -0.025304   0.535534  -0.000111   0.000012  -0.000026   0.000000
    10  C   -0.046246  -0.035308   0.000002   0.000000  -0.000001   0.000000
    11  C   -0.029269  -0.046230   0.000000   0.000000   0.000000   0.000000
    12  C    0.544540  -0.037999   0.000000   0.000000   0.000000   0.000000
    13  C    4.838761   0.514433  -0.000001   0.000000   0.000000   0.000000
    14  C    0.514433   4.886055  -0.000111   0.000000   0.000002   0.000000
    15  C   -0.000001  -0.000111   5.000388   0.364617  -0.077435   0.000253
    16  C    0.000000   0.000000   0.364617   4.943906   0.361176  -0.002401
    17  C    0.000000   0.000002  -0.077435   0.361176   5.039295   0.001328
    18  C    0.000000   0.000000   0.000253  -0.002401   0.001328   5.060708
    19  C    0.000000   0.000000   0.000076   0.000062  -0.001238   0.313968
    20  O    0.000000   0.000000  -0.000012   0.000115  -0.011845  -0.089785
    21  N    0.000000   0.000000  -0.000001   0.000003  -0.000086  -0.102284
    22  C    0.000000   0.000000   0.000000   0.000000   0.000003  -0.000665
    23  C    0.000000   0.000000   0.000000   0.000000   0.000001   0.005723
    24  H    0.000000   0.000000   0.000000   0.000000  -0.000007  -0.000161
    25  H    0.000000   0.000000  -0.000006  -0.000001   0.000096  -0.000158
    26  H    0.000000   0.000000  -0.000049  -0.000004   0.000178  -0.000285
    27  H    0.000000  -0.000010   0.006229   0.005218  -0.032621   0.004789
    28  H    0.000000  -0.000026  -0.038917   0.006060   0.007011   0.000094
    29  H   -0.000109   0.006872  -0.000225  -0.000041   0.000067  -0.000001
    30  H   -0.000141  -0.006046   0.000239   0.000024   0.000061   0.000000
[...]
    33  H    7.459376   6.059436   5.404485   3.892900   3.402488
    34  H    6.141772   4.819132   4.683449   3.405620   3.869951
    35  H    3.701068   2.481980   2.726436   2.146469   3.391164
    36  H    2.172786   2.503983   3.799301   4.569256   5.945553
    37  H    2.152735   3.299541   4.468873   5.625787   6.908436
    38  H    3.022901   3.070256   4.430207   5.048355   6.225791
    39  H    3.335652   4.049171   5.396249   6.337907   7.531637
    40  H    3.359293   4.050780   5.003675   6.100574   6.980455
    41  H    2.918195   2.951243   3.837809   4.657595   5.484563
    42  H    3.218774   4.490667   5.515241   6.836002   7.917167
    43  H    3.815321   5.227969   5.956714   7.415349   8.419570
    44  H    5.686775   7.062016   7.574786   9.079010   9.929565
    45  H    7.250205   8.613291   9.189580  10.681829  11.511601
    46  H    6.376657   7.784793   8.553090  10.009232  11.002665
    47  H    7.697022   8.882380   9.450449  10.858587  11.544927
    48  H    7.064112   8.155124   8.901865  10.215917  10.969742
    49  H    7.829827   9.076065   9.869787  11.258289  12.111676
                   11         12         13         14         15
    11  C    0.000000
    12  C    1.395477   0.000000
    13  C    2.412822   1.396109   0.000000
    14  C    2.789639   2.420812   1.394803   0.000000
    15  C    7.109172   7.142164   6.088788   4.775010   0.000000
    16  C    7.480304   7.528403   6.541400   5.323568   1.549691
    17  C    7.191242   7.511765   6.762961   5.523845   2.481757
    18  C    9.241928   9.685539   8.910817   7.536830   3.402989
    19  C   10.220188  10.743951  10.050889   8.710265   4.715480
    20  O    9.989214  10.537049   9.914688   8.635769   4.985591
    21  N   11.491019  12.029129  11.321333   9.962497   5.805893
    22  C   11.983123  12.512975  11.770732  10.382708   6.165191
    23  C   12.542910  13.115170  12.452167  11.122905   7.039444
    24  H    7.856197   8.819873   8.611975   7.392081   5.911487
    25  H    6.950753   7.916297   7.736039   6.545709   5.274803
    26  H    6.353259   7.197310   6.887027   5.636073   4.541079
    27  H    6.131419   6.793306   6.328817   5.056235   3.362784
    28  H    6.317292   6.658616   5.859201   4.473799   2.209814
    29  H    4.019744   4.803122   4.549395   3.394682   4.180430
    30  H    4.276097   4.784380   4.281488   3.041496   3.907409
    31  H    2.152628   3.400796   3.871192   3.398381   6.334641
    32  H    1.086216   2.156491   3.399635   3.875828   8.093133
    33  H    2.156521   1.086107   2.157527   3.405282   8.144919
    34  H    3.398609   2.155463   1.086385   2.150965   6.445004
    35  H    3.873986   3.406427   2.158957   1.084419   4.018006
    36  H    6.893051   6.728055   5.548020   4.318969   1.093028
    37  H    8.044103   8.107511   7.047529   5.720482   1.095393
    38  H    7.116331   7.018315   5.993616   4.911452   2.185773
    39  H    8.567697   8.578481   7.549915   6.356369   2.200539
    40  H    8.151522   8.528683   7.822705   6.600231   3.300498
    41  H    6.554458   6.890815   6.248119   5.122761   3.163231
    42  H    9.168616   9.468116   8.585372   7.237975   2.766416
    43  H    9.749293  10.174665   9.363559   7.972041   3.772537
    44  H   11.305632  11.881117  11.183962   9.792427   5.829821
    45  H   12.887300  13.474241  12.776377  11.389419   7.248722
    46  H   12.337887  12.759339  11.916857  10.530593   6.077779
    47  H   12.887839  13.557468  12.980055  11.651537   7.779554
    48  H   12.251005  12.809192  12.170486  10.884724   6.946553
    49  H   13.426555  13.934490  13.201348  11.865606   7.562409
                   16         17         18         19         20
    16  C    0.000000
    17  C    1.557771   0.000000
    18  C    3.437970   2.987473   0.000000
    19  C    4.339128   3.608840   1.542144   0.000000
    20  O    4.269559   3.280257   2.393633   1.231253   0.000000
    21  N    5.538393   4.950177   2.496895   1.365094   2.278883
    22  C    6.236802   5.831431   2.948505   2.501812   3.624861
    23  C    6.548820   5.868075   3.836331   2.425826   2.735093
    24  H    6.430280   5.401849   4.499183   5.024274   5.364806
    25  H    5.447431   4.182366   4.190034   4.585179   4.541120
    26  H    5.203151   4.352303   4.189653   5.107897   5.378973
    27  H    3.362824   2.174250   3.395136   4.131481   3.971767
    28  H    3.417317   3.408769   3.581241   5.002721   5.427162
    29  H    4.600526   3.896384   5.376491   6.325435   6.228025
    30  H    4.871516   4.649742   5.597428   6.845628   7.035569
    31  H    6.715905   6.079342   7.778074   8.656210   8.451717
    32  H    8.416990   8.005612  10.032851  10.938898  10.661548
    33  H    8.493822   8.514942  10.753067  11.800076  11.564151
    34  H    6.887076   7.313649   9.487106  10.658954  10.540261
    35  H    4.657786   5.131703   7.052488   8.292619   8.292604
    36  H    2.224261   3.380205   4.456500   5.787654   6.055253
    37  H    2.196960   3.052824   2.915967   4.324137   4.841615
    38  H    1.092990   2.191791   4.519209   5.342806   5.131219
    39  H    1.094940   2.215557   3.366554   4.094171   4.081766
    40  H    2.239921   1.091610   2.714483   2.875254   2.324390
    41  H    2.182472   1.092760   4.016582   4.498451   3.959989
    42  H    2.608561   2.561144   1.089908   2.112092   2.686757
    43  H    4.149805   3.937625   1.089355   2.209193   3.301110
    44  H    6.113662   5.652443   2.712036   2.689676   3.852392
    45  H    7.290692   6.806198   3.981699   3.323256   4.301983
    46  H    6.211412   6.078985   3.219971   3.049712   4.196251
    47  H    7.359547   6.532261   4.459397   3.076445   3.335277
    48  H    6.234477   5.470397   3.990938   2.474456   2.272634
    49  H    7.081548   6.593894   4.475609   3.216679   3.619146
                   21         22         23         24         25
    21  N    0.000000
    22  C    1.462446   0.000000
    23  C    1.458409   2.486417   0.000000
    24  H    5.659259   5.690351   6.677887   0.000000
    25  H    5.544491   6.006884   6.449249   1.775575   0.000000
    26  H    6.036943   6.187981   7.208306   1.780139   1.769471
    27  H    5.397586   6.047527   6.418915   3.537991   2.204464
    28  H    6.019427   6.122516   7.369161   4.180602   3.938978
    29  H    7.543899   8.009122   8.633625   4.204671   3.188655
    30  H    7.947906   8.132225   9.212026   4.563534   4.178286
    31  H    9.872509  10.344116  10.895457   5.827836   4.933961
    32  H   12.201472  12.712409  13.207881   8.282010   7.385965
    33  H   13.093667  13.591933  14.164578   9.860376   8.952098
    34  H   11.918667  12.356728  13.057345   9.529425   8.668716
    35  H    9.513059   9.894575  10.705476   7.481851   6.692360
    36  H    6.840951   7.128069   8.079557   6.717922   6.123911
    37  H    5.232633   5.402342   6.537048   5.889060   5.517876
    38  H    6.561233   7.312744   7.493207   7.222169   6.109738
    39  H    5.152262   5.869957   6.081069   7.024778   6.132468
    40  H    4.203224   5.271089   4.953385   5.576932   4.365648
    41  H    5.858208   6.816734   6.658365   5.775647   4.326836
    42  H    3.088292   3.634142   4.301315   5.387029   4.891476
    43  H    2.626923   2.489234   4.080294   4.582669   4.682183
    44  H    2.105206   1.090193   3.307006   4.772482   5.300047
    45  H    2.081755   1.093004   2.506798   6.193301   6.628462
    46  H    2.136357   1.097996   3.091386   6.454777   6.769063
    47  H    2.116377   2.818028   1.097394   6.542882   6.446576
    48  H    2.080354   3.394766   1.088403   6.912718   6.401325
    49  H    2.101607   2.720602   1.095705   7.616156   7.465550
                   26         27         28         29         30
    26  H    0.000000
    27  H    2.382256   0.000000
    28  H    2.665858   2.701392   0.000000
    29  H    2.591612   2.256603   2.960568   0.000000
    30  H    2.819471   3.310242   2.264912   1.769236   0.000000
    31  H    4.479166   4.541516   5.140498   2.411021   3.146044
    32  H    6.917475   6.812080   7.198418   4.703428   5.097665
    33  H    8.260164   7.852323   7.726890   5.868725   5.846850
    34  H    7.776670   7.129381   6.473517   5.498448   5.107163
    35  H    5.704241   4.997029   4.053175   3.722192   3.148858
    36  H    5.217966   4.193384   2.682855   4.532750   3.985847
    37  H    4.727978   3.877792   2.420256   4.916828   4.489761
    38  H    5.870182   3.926346   4.053750   4.786714   5.110586
    39  H    5.969614   4.188398   4.179088   5.639410   5.862446
    40  H    4.845414   2.737340   4.215117   4.751767   5.596137
    41  H    4.644682   2.294300   3.951457   3.631184   4.677511
    42  H    4.793548   3.619397   3.615075   5.515681   5.688805
    43  H    4.398783   4.135094   3.701918   5.896179   5.830639
    44  H    5.324158   5.524047   5.433750   7.329996   7.358382
    45  H    6.930342   6.920447   7.112201   8.883984   9.051109
    46  H    6.751530   6.543012   6.268907   8.446051   8.409487
    47  H    7.330391   6.776694   7.850299   8.942611   9.573107
    48  H    7.311162   6.200119   7.450070   8.452884   9.195526
    49  H    8.108884   7.324928   8.049697   9.531731  10.007748
                   31         32         33         34         35
    31  H    0.000000
    32  H    2.474129   0.000000
    33  H    4.298269   2.487160   0.000000
    34  H    4.957536   4.299526   2.485868   0.000000
    35  H    4.289399   4.960141   4.305203   2.484814   0.000000
    36  H    6.432443   7.932676   7.676094   5.756642   3.404133
    37  H    7.156881   9.017440   9.118082   7.386075   4.941248
    38  H    6.637372   8.069402   7.915912   6.239339   4.232003
    39  H    7.798556   9.507090   9.525179   7.823400   5.625726
    40  H    6.930712   8.914016   9.523194   8.376021   6.220971
    41  H    5.545275   7.320719   7.853143   6.830146   4.878980
    42  H    7.912179  10.025424  10.510248   9.061691   6.643492
    43  H    8.282131  10.555710  11.248451   9.916738   7.441814
    44  H    9.619041  12.013893  12.965859  11.812005   9.355244
    45  H   11.170678  13.575670  14.556028  13.390513  10.935246
    46  H   10.823437  13.130006  13.829307  12.420668   9.942640
    47  H   11.124147  13.488398  14.612164  13.648355  11.309467
    48  H   10.661336  12.900777  13.834188  12.767735  10.494230
    49  H   11.837690  14.130742  14.982172  13.750818  11.374961
                   36         37         38         39         40
    36  H    0.000000
    37  H    1.763301   0.000000
    38  H    2.398078   3.029393   0.000000
    39  H    2.822023   2.386239   1.754246   0.000000
    40  H    4.264406   3.612438   2.926804   2.420079   0.000000
    41  H    3.858936   3.941566   2.307065   2.958262   1.760495
    42  H    3.783133   2.283205   3.687918   2.344064   2.353212
    43  H    4.721403   3.027697   5.240256   4.028821   3.776597
    44  H    6.779827   5.085574   7.204256   5.922417   5.253333
    45  H    8.216704   6.491699   8.359819   6.911847   6.181612
    46  H    6.952280   5.195683   7.272950   5.715486   5.576558
    47  H    8.843159   7.296584   8.314523   6.993507   5.641694
    48  H    7.988093   6.587647   7.087627   5.767389   4.458973
    49  H    8.552396   6.964128   8.016558   6.475159   5.686007
                   41         42         43         44         45
    41  H    0.000000
    42  H    3.649806   0.000000
    43  H    4.981335   1.760922   0.000000
    44  H    6.621923   3.587627   2.070904   0.000000
    45  H    7.752087   4.698600   3.547524   1.762146   0.000000
    46  H    7.124755   3.638757   2.598976   1.797858   1.769378
    47  H    7.264843   5.098556   4.640156   3.474687   2.486574
    48  H    6.148376   4.304858   4.492018   4.122109   3.566490
    49  H    7.432968   4.799148   4.572344   3.734498   2.583776
                   46         47         48         49
    46  H    0.000000
    47  H    3.631223   0.000000
    48  H    3.944757   1.777906   0.000000
    49  H    2.995335   1.779805   1.787641   0.000000
 Stoichiometry    C18H26N2O3
 Framework group  C1[X(C18H26N2O3)]
 Deg. of freedom   141
 Full point group                 C1      NOp   1
 Largest Abelian subgroup         C1      NOp   1
 Largest concise Abelian subgroup C1      NOp   1
                         Standard orientation:                         
 ---------------------------------------------------------------------
 Center     Atomic      Atomic             Coordinates (Angstroms)
 Number     Number       Type             X           Y           Z
 ---------------------------------------------------------------------
      1          6           0        0.706478    2.743099    0.007299
      2          6           0        1.810285    1.762461   -0.354880
      3          8           0        2.892510    2.174684   -0.776260
      4          7           0        1.584043    0.417469   -0.194187
      5          6           0        0.302681   -0.137438    0.288256
      6          6           0       -0.658911   -0.524589   -0.874773
      7          8           0       -2.003573   -0.606621   -0.403838
      8          6           0       -2.693211    0.629855   -0.319864
      9          6           0       -4.158378    0.384368   -0.036611
     10          6           0       -4.900790    1.331360    0.677327
     11          6           0       -6.265947    1.145629    0.897722
     12          6           0       -6.902189    0.001661    0.414100
     13          6           0       -6.165235   -0.951490   -0.291252
     14          6           0       -4.802483   -0.760451   -0.519042
     15          6           0       -0.235067   -1.947135   -1.247884
     16          6           0        0.148437   -2.618240    0.095278
     17          6           0        0.436020   -1.454486    1.090076
     18          6           0        2.727214   -0.432870   -0.532184
     19          6           0        3.834515   -0.372454    0.539470
     20          8           0        3.537619   -0.588454    1.714707
     21          7           0        5.122135   -0.182044    0.128061
     22          6           0        5.502943    0.307233   -1.196455
     23          6           0        6.190729   -0.306826    1.112690
     24          1           0        1.058584    3.737002   -0.266697
     25          1           0        0.499905    2.727386    1.082829
     26          1           0       -0.230117    2.534817   -0.517488
     27          1           0       -0.156274    0.629864    0.911093
     28          1           0       -0.596175    0.182047   -1.716352
     29          1           0       -2.271690    1.276752    0.465216
     30          1           0       -2.582313    1.176584   -1.273657
     31          1           0       -4.407782    2.219128    1.066932
     32          1           0       -6.828865    1.888877    1.455010
     33          1           0       -7.963328   -0.148575    0.590286
     34          1           0       -6.652927   -1.847216   -0.665504
     35          1           0       -4.223854   -1.501940   -1.058807
     36          1           0       -1.038757   -2.463302   -1.779263
     37          1           0        0.624873   -1.897214   -1.924565
     38          1           0       -0.675453   -3.235969    0.461669
     39          1           0        1.010469   -3.283307   -0.020831
     40          1           0        1.409382   -1.513353    1.580703
     41          1           0       -0.325183   -1.445708    1.874051
     42          1           0        2.400313   -1.472383   -0.553303
     43          1           0        3.083672   -0.175395   -1.528847
     44          1           0        4.769052    1.027630   -1.558330
     45          1           0        6.460490    0.826600   -1.106907
     46          1           0        5.631308   -0.507710   -1.921014
     47          1           0        6.604642    0.676161    1.370923
     48          1           0        5.783777   -0.764537    2.012419
     49          1           0        6.998008   -0.929211    0.710811
 ---------------------------------------------------------------------
 Rotational constants (GHZ):      0.6850005      0.1018405      0.0956515
 Standard basis: 6-31G(d,p) (6D, 7F)
 There are   475 symmetry adapted basis functions of A   symmetry.
 Integral buffers will be    131072 words long.
 Raffenetti 2 integral format.
 Two-electron integral symmetry is turned on.
   475 basis functions,   826 primitive gaussians,   475 cartesian basis functions
    86 alpha electrons       86 beta electrons
       nuclear repulsion energy      1970.1977901116 Hartrees.
 NAtoms=   49 NActive=   49 NUniq=   49 SFac= 1.00D+00 NAtFMM=   60 NAOKFM=F Big=F
 One-electron integrals computed using PRISM.
 NBasis=   475 RedAO= T  NBF=   475
 NBsUse=   475 1.00D-06 NBFU=   475
 Initial guess read from the read-write file.
 B after Tr=     0.000000    0.000000    0.000000
         Rot=    1.000000    0.000000    0.000000    0.000000 Ang=   0.00 deg.
 Initial guess orbital symmetries:
       Occupied  (A) (A) (A) (A) (A) (A) (A) (A) (A) (A) (A) (A)
                 (A) (A) (A) (A) (A) (A) (A) (A) (A) (A) (A) (A)
                 (A) (A) (A) (A) (A) (A) (A) (A) (A) (A) (A) (A)
                 (A) (A) (A) (A) (A) (A) (A) (A) (A) (A) (A) (A)
                 (A) (A) (A) (A) (A) (A) (A) (A) (A) (A) (A) (A)
                 (A) (A) (A) (A) (A) (A) (A) (A) (A) (A) (A) (A)
                 (A) (A) (A) (A) (A) (A) (A) (A) (A) (A) (A) (A)
                 (A) (A)
       Virtual   (A) (A) (A) (A) (A) (A) (A) (A) (A) (A) (A) (A)
                 (A) (A) (A) (A) (A) (A) (A) (A) (A) (A) (A) (A)
                 (A) (A) (A) (A) (A) (A) (A) (A) (A) (A) (A) (A)
                 (A) (A) (A) (A) (A) (A) (A) (A) (A) (A) (A) (A)
                 (A) (A) (A) (A) (A) (A) (A) (A) (A) (A) (A) (A)
                 (A) (A) (A) (A) (A) (A) (A) (A) (A) (A) (A) (A)
                 (A) (A) (A) (A) (A) (A) (A) (A) (A) (A) (A) (A)
                 (A) (A) (A) (A) (A) (A) (A) (A) (A) (A) (A) (A)
                 (A) (A) (A) (A) (A) (A) (A) (A) (A) (A) (A) (A)
                 (A) (A) (A) (A) (A) (A) (A) (A) (A) (A) (A) (A)
                 (A) (A) (A) (A) (A) (A) (A) (A) (A) (A) (A) (A)
                 (A) (A) (A) (A) (A) (A) (A) (A) (A) (A) (A) (A)
                 (A) (A) (A) (A) (A) (A) (A) (A) (A) (A) (A) (A)
                 (A) (A) (A) (A) (A) (A) (A) (A) (A) (A) (A) (A)
                 (A) (A) (A) (A) (A) (A) (A) (A) (A) (A) (A) (A)
                 (A) (A) (A) (A) (A) (A) (A) (A) (A) (A) (A) (A)
                 (A) (A) (A) (A) (A) (A) (A) (A) (A) (A) (A) (A)
                 (A) (A) (A) (A) (A) (A) (A) (A) (A) (A) (A) (A)
                 (A) (A) (A) (A) (A) (A) (A) (A) (A) (A) (A) (A)
                 (A) (A) (A) (A) (A) (A) (A) (A) (A) (A) (A) (A)
                 (A) (A) (A) (A) (A) (A) (A) (A) (A) (A) (A) (A)
                 (A) (A) (A) (A) (A) (A) (A) (A) (A) (A) (A) (A)
                 (A) (A) (A) (A) (A) (A) (A) (A) (A) (A) (A) (A)
                 (A) (A) (A) (A) (A) (A) (A) (A) (A) (A) (A) (A)
                 (A) (A) (A) (A) (A) (A) (A) (A) (A) (A) (A) (A)
                 (A) (A) (A) (A) (A) (A) (A) (A) (A) (A) (A) (A)
                 (A) (A) (A) (A) (A) (A) (A) (A) (A) (A) (A) (A)
                 (A) (A) (A) (A) (A) (A) (A) (A) (A) (A) (A) (A)
                 (A) (A) (A) (A) (A) (A) (A) (A) (A) (A) (A) (A)
                 (A) (A) (A) (A) (A) (A) (A) (A) (A) (A) (A) (A)
                 (A) (A) (A) (A) (A) (A) (A) (A) (A) (A) (A) (A)
                 (A) (A) (A) (A) (A) (A) (A) (A) (A) (A) (A) (A)
                 (A) (A) (A) (A) (A)
 Requested convergence on RMS density matrix=1.00D-08 within 128 cycles.
 Requested convergence on MAX density matrix=1.00D-06.
 Requested convergence on             energy=1.00D-06.
 No special actions if energy rises.
