 Entering Gaussian System, Link 0=/data/opt/apps/g09-C01/g09
 Initial command:
 /data/opt/apps/g09-C01/l1.exe /tmp/g09-tuu61186-752702c9f91b9fd8x/Gau-752719.inp -scrdir=/tmp/g09-tuu61186-752702c9f91b9fd8x/
 Entering Link 1 = /data/opt/apps/g09-C01/l1.exe PID=    752720.
  
 Copyright (c) 1988,1990,1992,1993,1995,1998,2003,2009,2011,
            Gaussian, Inc.  All Rights Reserved.
  
 This is part of the Gaussian(R) 09 program.  It is based on
 the Gaussian(R) 03 system (copyright 2003, Gaussian, Inc.),
 the Gaussian(R) 98 system (copyright 1998, Gaussian, Inc.),
 the Gaussian(R) 94 system (copyright 1995, Gaussian, Inc.),
 the Gaussian 92(TM) system (copyright 1992, Gaussian, Inc.),
 the Gaussian 90(TM) system (copyright 1990, Gaussian, Inc.),
 the Gaussian 88(TM) system (copyright 1988, Gaussian, Inc.),
 the Gaussian 86(TM) system (copyright 1986, Carnegie Mellon
 University), and the Gaussian 82(TM) system (copyright 1983,
 Carnegie Mellon University). Gaussian is a federally registered
 trademark of Gaussian, Inc.
  
 This software contains proprietary and confidential information,
 including trade secrets, belonging to Gaussian, Inc.
  
 This software is provided under written license and may be
 used, copied, transmitted, or stored only in accord with that
 written license.
  
 The following legend is applicable only to US Government
 contracts under FAR:
  
                    RESTRICTED RIGHTS LEGEND
  
 Use, reproduction and disclosure by the US Government is
 subject to restrictions as set forth in subparagraphs (a)
 and (c) of the Commercial Computer Software - Restricted
 Rights clause in FAR 52.227-19.
  
 Gaussian, Inc.
 340 Quinnipiac St., Bldg. 40, Wallingford CT 06492
  
  
 ---------------------------------------------------------------
 Warning -- This program may not be used in any manner that
 competes with the business of Gaussian, Inc. or will provide
 assistance to any competitor of Gaussian, Inc.  The licensee
 of this program is prohibited from giving any competitor of
 Gaussian, Inc. access to this program.  By using this program,
 the user acknowledges that Gaussian, Inc. is engaged in the
 business of creating and licensing software in the field of
 computational chemistry and represents and warrants to the
 licensee that it is not a competitor of Gaussian, Inc. and that
 it will not use this program in any manner prohibited above.
 ---------------------------------------------------------------
  

 Cite this work as:
 Gaussian 09, Revision C.01,
 M. J. Frisch, G. W. Trucks, H. B. Schlegel, G. E. Scuseria, 
 M. A. Robb, J. R. Cheeseman, G. Scalmani, V. Barone, B. Mennucci, 
 G. A. Petersson, H. Nakatsuji, M. Caricato, X. Li, H. P. Hratchian, 
 A. F. Izmaylov, J. Bloino, G. Zheng, J. L. Sonnenberg, M. Hada, 
 M. Ehara, K. Toyota, R. Fukuda, J. Hasegawa, M. Ishida, T. Nakajima, 
 Y. Honda, O. Kitao, H. Nakai, T. Vreven, J. A. Montgomery, Jr., 
 J. E. Peralta, F. Ogliaro, M. Bearpark, J. J. Heyd, E. Brothers, 
 K. N. Kudin, V. N. Staroverov, T. Keith, R. Kobayashi, J. Normand, 
 K. Raghavachari, A. Rendell, J. C. Burant, S. S. Iyengar, J. Tomasi, 
 M. Cossi, N. Rega, J. M. Millam, M. Klene, J. E. Knox, J. B. Cross, 
 V. Bakken, C. Adamo, J. Jaramillo, R. Gomperts, R. E. Stratmann, 
 O. Yazyev, A. J. Austin, R. Cammi, C. Pomelli, J. W. Ochterski, 
 R. L. Martin, K. Morokuma, V. G. Zakrzewski, G. A. Voth, 
 P. Salvador, J. J. Dannenberg, S. Dapprich, A. D. Daniels, 
 O. Farkas, J. B. Foresman, J. V. Ortiz, J. Cioslowski, 
 and D. J. Fox, Gaussian, Inc., Wallingford CT, 2010.
 
 ******************************************
 Gaussian 09:  EM64L-G09RevC.01 23-Sep-2011
                10-Apr-2026 
 ******************************************
 %nprocshared=8
 Will use up to    8 processors via shared memory.
 %mem=16GB
 -----------------------------------
 # opt=modredundant b3lyp/6-31g(d,p)
 -----------------------------------
 1/14=-1,18=120,19=15,26=3,38=1/1,3;
 2/9=110,12=2,17=6,18=5,40=1/2;
 3/5=1,6=6,7=101,11=2,16=1,25=1,30=1,71=1,74=-5/1,2,3;
 4//1;
 5/5=2,38=5/2;
 6/7=2,8=2,9=2,10=2,28=1/1;
 7//1,2,3,16;
 1/14=-1,18=20,19=15/3(2);
 2/9=110/2;
 99//99;
 2/9=110/2;
 3/5=1,6=6,7=101,11=2,16=1,25=1,30=1,71=1,74=-5/1,2,3;
 4/5=5,16=3/1;
 5/5=2,38=5/2;
 7//1,2,3,16;
 1/14=-1,18=20,19=15/3(-5);
 2/9=110/2;
 6/7=2,8=2,9=2,10=2,19=2,28=1/1;
 99/9=1/99;
 ---------------
 QM dihedral opt
 ---------------
 Charge =  0 Multiplicity = 1
 Symbolic Z-Matrix:
 C                     0.29578  -0.39724   2.80976 
 C                     1.49887  -0.10321   1.93115 
 O                     2.29008   0.79512   2.22356 
 N                     1.69361  -0.85235   0.79468 
 C                     0.78333  -1.90432   0.33802 
 C                    -0.13478  -1.51065  -0.84372 
 O                    -1.29504  -0.89304  -0.28508 
 C                    -1.90637   0.06212  -1.14572 
 C                    -3.16232   0.59982  -0.50107 
 C                    -3.57513   1.91191  -0.75874 
 C                    -4.76179   2.40475  -0.21482 
 C                    -5.54603   1.59212   0.60517 
 C                    -5.13569   0.28525   0.87504 
 C                    -3.95394  -0.2092    0.32289 
 C                    -0.42775  -2.83782  -1.59847 
 C                     0.25004  -3.95609  -0.7712 
 C                     1.42163  -3.24373  -0.07404 
 C                     2.80715  -0.41818  -0.04746 
 C                     2.57674   0.97253  -0.67257 
 O                     1.54358   1.17967  -1.31303 
 N                     3.5812    1.89054  -0.58683 
 C                     4.70219   1.79478   0.34872 
 C                     3.43573   3.14779  -1.3119 
 H                     0.30364   0.33186   3.61924 
 H                     0.34171  -1.40316   3.24095 
 H                    -0.63392  -0.31206   2.24069 
 H                     0.11047  -2.12086   1.16901 
 H                     0.38043  -0.78577  -1.48144 
 H                    -1.20153   0.87661  -1.36181 
 H                    -2.1625   -0.41203  -2.10926 
 H                    -2.96046   2.55329  -1.38572 
 H                    -5.06768   3.4261   -0.42329 
 H                    -6.46687   1.97589   1.03491 
 H                    -5.73813  -0.35166   1.51699 
 H                    -3.62774  -1.22175   0.53491 
 H                    -1.50489  -2.98968  -1.71173 
 H                     0.00485  -2.80083  -2.60436 
 H                    -0.44441  -4.34224  -0.01531 
 H                     0.56812  -4.80702  -1.38035 
 H                     2.24261  -3.09302  -0.78553 
 H                     1.82675  -3.79166   0.78205 
 H                     3.73748  -0.47745   0.51754 
 H                     2.88844  -1.1072   -0.89098 
 H                     5.53178   1.20004  -0.05488 
 H                     5.07721   2.80359   0.53644 
 H                     4.36431   1.38193   1.29987 
 H                     4.36862   3.38679  -1.83393 
 H                     2.62588   3.04364  -2.03142 
 H                     3.19729   3.97164  -0.62736 
 
 The following ModRedundant input section has been read:
 D       2       4      18      19 S  36 10.000                                
 D       4      18      19      21 S  36 10.000                                

 GradGradGradGradGradGradGradGradGradGradGradGradGradGradGradGradGradGrad
 Berny optimization.
 Initialization pass.
                           ----------------------------
                           !    Initial Parameters    !
                           ! (Angstroms and Degrees)  !
 --------------------------                            --------------------------
 ! Name  Definition              Value          Derivative Info.                !
 --------------------------------------------------------------------------------
 ! R1    R(1,2)                  1.5185         estimate D2E/DX2                !
 ! R2    R(1,24)                 1.0895         estimate D2E/DX2                !
 ! R3    R(1,25)                 1.0954         estimate D2E/DX2                !
 ! R4    R(1,26)                 1.0934         estimate D2E/DX2                !
 ! R5    R(2,3)                  1.2323         estimate D2E/DX2                !
 ! R6    R(2,4)                  1.375          estimate D2E/DX2                !
 ! R7    R(4,5)                  1.4642         estimate D2E/DX2                !
 ! R8    R(4,18)                 1.4621         estimate D2E/DX2                !
 ! R9    R(5,6)                  1.5474         estimate D2E/DX2                !
 ! R10   R(5,17)                 1.5399         estimate D2E/DX2                !
 ! R11   R(5,27)                 1.091          estimate D2E/DX2                !
 ! R12   R(6,7)                  1.4282         estimate D2E/DX2                !
 ! R13   R(6,15)                 1.5546         estimate D2E/DX2                !
 ! R14   R(6,28)                 1.0943         estimate D2E/DX2                !
 ! R15   R(7,8)                  1.4236         estimate D2E/DX2                !
 ! R16   R(8,9)                  1.5107         estimate D2E/DX2                !
 ! R17   R(8,29)                 1.0986         estimate D2E/DX2                !
 ! R18   R(8,30)                 1.104          estimate D2E/DX2                !
 ! R19   R(9,10)                 1.3994         estimate D2E/DX2                !
 ! R20   R(9,14)                 1.4            estimate D2E/DX2                !
 ! R21   R(10,11)                1.3953         estimate D2E/DX2                !
 ! R22   R(10,31)                1.0873         estimate D2E/DX2                !
 ! R23   R(11,12)                1.3956         estimate D2E/DX2                !
 ! R24   R(11,32)                1.0864         estimate D2E/DX2                !
 ! R25   R(12,13)                1.3961         estimate D2E/DX2                !
 ! R26   R(12,33)                1.0862         estimate D2E/DX2                !
 ! R27   R(13,14)                1.395          estimate D2E/DX2                !
 ! R28   R(13,34)                1.0866         estimate D2E/DX2                !
 ! R29   R(14,35)                1.0847         estimate D2E/DX2                !
 ! R30   R(15,16)                1.5474         estimate D2E/DX2                !
 ! R31   R(15,36)                1.0937         estimate D2E/DX2                !
 ! R32   R(15,37)                1.0956         estimate D2E/DX2                !
 ! R33   R(16,17)                1.5382         estimate D2E/DX2                !
 ! R34   R(16,38)                1.0967         estimate D2E/DX2                !
 ! R35   R(16,39)                1.0938         estimate D2E/DX2                !
 ! R36   R(17,40)                1.0968         estimate D2E/DX2                !
 ! R37   R(17,41)                1.0942         estimate D2E/DX2                !
 ! R38   R(18,19)                1.5421         estimate D2E/DX2                !
 ! R39   R(18,42)                1.0901         estimate D2E/DX2                !
 ! R40   R(18,43)                1.0922         estimate D2E/DX2                !
 ! R41   R(19,20)                1.2331         estimate D2E/DX2                !
 ! R42   R(19,21)                1.3635         estimate D2E/DX2                !
 ! R43   R(21,22)                1.4632         estimate D2E/DX2                !
 ! R44   R(21,23)                1.4586         estimate D2E/DX2                !
 ! R45   R(22,44)                1.0976         estimate D2E/DX2                !
 ! R46   R(22,45)                1.0925         estimate D2E/DX2                !
 ! R47   R(22,46)                1.0905         estimate D2E/DX2                !
 ! R48   R(23,47)                1.0954         estimate D2E/DX2                !
 ! R49   R(23,48)                1.0883         estimate D2E/DX2                !
 ! R50   R(23,49)                1.0974         estimate D2E/DX2                !
 ! A1    A(2,1,24)             107.1341         estimate D2E/DX2                !
 ! A2    A(2,1,25)             111.8609         estimate D2E/DX2                !
 ! A3    A(2,1,26)             110.9441         estimate D2E/DX2                !
 ! A4    A(24,1,25)            108.7708         estimate D2E/DX2                !
 ! A5    A(24,1,26)            109.9207         estimate D2E/DX2                !
 ! A6    A(25,1,26)            108.1845         estimate D2E/DX2                !
 ! A7    A(1,2,3)              120.8347         estimate D2E/DX2                !
 ! A8    A(1,2,4)              119.0082         estimate D2E/DX2                !
 ! A9    A(3,2,4)              120.1566         estimate D2E/DX2                !
 ! A10   A(2,4,5)              124.1369         estimate D2E/DX2                !
 ! A11   A(2,4,18)             114.9696         estimate D2E/DX2                !
 ! A12   A(5,4,18)             120.478          estimate D2E/DX2                !
 ! A13   A(4,5,6)              115.1049         estimate D2E/DX2                !
 ! A14   A(4,5,17)             116.7886         estimate D2E/DX2                !
 ! A15   A(4,5,27)             106.7669         estimate D2E/DX2                !
 ! A16   A(6,5,17)             105.2407         estimate D2E/DX2                !
 ! A17   A(6,5,27)             105.4423         estimate D2E/DX2                !
 ! A18   A(17,5,27)            106.6687         estimate D2E/DX2                !
 ! A19   A(5,6,7)              107.0566         estimate D2E/DX2                !
 ! A20   A(5,6,15)             105.3901         estimate D2E/DX2                !
 ! A21   A(5,6,28)             109.5251         estimate D2E/DX2                !
 ! A22   A(7,6,15)             113.9526         estimate D2E/DX2                !
 ! A23   A(7,6,28)             108.9035         estimate D2E/DX2                !
 ! A24   A(15,6,28)            111.7945         estimate D2E/DX2                !
 ! A25   A(6,7,8)              113.7365         estimate D2E/DX2                !
 ! A26   A(7,8,9)              109.7458         estimate D2E/DX2                !
 ! A27   A(7,8,29)             109.9275         estimate D2E/DX2                !
 ! A28   A(7,8,30)             109.8214         estimate D2E/DX2                !
 ! A29   A(9,8,29)             110.6991         estimate D2E/DX2                !
 ! A30   A(9,8,30)             109.4157         estimate D2E/DX2                !
 ! A31   A(29,8,30)            107.1928         estimate D2E/DX2                !
 ! A32   A(8,9,10)             120.0263         estimate D2E/DX2                !
 ! A33   A(8,9,14)             121.0347         estimate D2E/DX2                !
 ! A34   A(10,9,14)            118.9056         estimate D2E/DX2                !
 ! A35   A(9,10,11)            120.6814         estimate D2E/DX2                !
 ! A36   A(9,10,31)            119.5031         estimate D2E/DX2                !
 ! A37   A(11,10,31)           119.8149         estimate D2E/DX2                !
 ! A38   A(10,11,12)           120.0843         estimate D2E/DX2                !
 ! A39   A(10,11,32)           119.784          estimate D2E/DX2                !
 ! A40   A(12,11,32)           120.1286         estimate D2E/DX2                !
 ! A41   A(11,12,13)           119.5679         estimate D2E/DX2                !
 ! A42   A(11,12,33)           120.2053         estimate D2E/DX2                !
 ! A43   A(13,12,33)           120.226          estimate D2E/DX2                !
 ! A44   A(12,13,14)           120.284          estimate D2E/DX2                !
 ! A45   A(12,13,34)           119.9952         estimate D2E/DX2                !
 ! A46   A(14,13,34)           119.7208         estimate D2E/DX2                !
 ! A47   A(9,14,13)            120.4733         estimate D2E/DX2                !
 ! A48   A(9,14,35)            118.974          estimate D2E/DX2                !
 ! A49   A(13,14,35)           120.5483         estimate D2E/DX2                !
 ! A50   A(6,15,16)            105.9534         estimate D2E/DX2                !
 ! A51   A(6,15,36)            110.7575         estimate D2E/DX2                !
 ! A52   A(6,15,37)            110.0296         estimate D2E/DX2                !
 ! A53   A(16,15,36)           112.7319         estimate D2E/DX2                !
 ! A54   A(16,15,37)           110.0177         estimate D2E/DX2                !
 ! A55   A(36,15,37)           107.3672         estimate D2E/DX2                !
 ! A56   A(15,16,17)           103.9604         estimate D2E/DX2                !
 ! A57   A(15,16,38)           110.2179         estimate D2E/DX2                !
 ! A58   A(15,16,39)           113.0711         estimate D2E/DX2                !
 ! A59   A(17,16,38)           109.4496         estimate D2E/DX2                !
 ! A60   A(17,16,39)           113.0295         estimate D2E/DX2                !
 ! A61   A(38,16,39)           107.1023         estimate D2E/DX2                !
 ! A62   A(5,17,16)            102.0274         estimate D2E/DX2                !
 ! A63   A(5,17,40)            111.3667         estimate D2E/DX2                !
 ! A64   A(5,17,41)            112.314          estimate D2E/DX2                !
 ! A65   A(16,17,40)           109.8617         estimate D2E/DX2                !
 ! A66   A(16,17,41)           113.8723         estimate D2E/DX2                !
 ! A67   A(40,17,41)           107.4105         estimate D2E/DX2                !
 ! A68   A(4,18,19)            112.7989         estimate D2E/DX2                !
 ! A69   A(4,18,42)            109.592          estimate D2E/DX2                !
 ! A70   A(4,18,43)            108.3121         estimate D2E/DX2                !
 ! A71   A(19,18,42)           112.7478         estimate D2E/DX2                !
 ! A72   A(19,18,43)           105.4853         estimate D2E/DX2                !
 ! A73   A(42,18,43)           107.6063         estimate D2E/DX2                !
 ! A74   A(18,19,20)           119.159          estimate D2E/DX2                !
 ! A75   A(18,19,21)           118.141          estimate D2E/DX2                !
 ! A76   A(20,19,21)           122.4672         estimate D2E/DX2                !
 ! A77   A(19,21,22)           124.0928         estimate D2E/DX2                !
 ! A78   A(19,21,23)           118.3991         estimate D2E/DX2                !
 ! A79   A(22,21,23)           116.7849         estimate D2E/DX2                !
 ! A80   A(21,22,44)           112.2959         estimate D2E/DX2                !
 ! A81   A(21,22,45)           108.205          estimate D2E/DX2                !
 ! A82   A(21,22,46)           110.1855         estimate D2E/DX2                !
 ! A83   A(44,22,45)           107.7012         estimate D2E/DX2                !
 ! A84   A(44,22,46)           110.471          estimate D2E/DX2                !
 ! A85   A(45,22,46)           107.8214         estimate D2E/DX2                !
 ! A86   A(21,23,47)           109.8788         estimate D2E/DX2                !
 ! A87   A(21,23,48)           108.686          estimate D2E/DX2                !
 ! A88   A(21,23,49)           111.02           estimate D2E/DX2                !
 ! A89   A(47,23,48)           109.8489         estimate D2E/DX2                !
 ! A90   A(47,23,49)           108.5735         estimate D2E/DX2                !
 ! A91   A(48,23,49)           108.8188         estimate D2E/DX2                !
 ! D1    D(24,1,2,3)             2.3952         estimate D2E/DX2                !
 ! D2    D(24,1,2,4)          -177.334          estimate D2E/DX2                !
 ! D3    D(25,1,2,3)          -116.716          estimate D2E/DX2                !
 ! D4    D(25,1,2,4)            63.5548         estimate D2E/DX2                !
 ! D5    D(26,1,2,3)           122.3796         estimate D2E/DX2                !
 ! D6    D(26,1,2,4)           -57.3496         estimate D2E/DX2                !
 ! D7    D(1,2,4,5)              2.1413         estimate D2E/DX2                !
 ! D8    D(1,2,4,18)           174.7481         estimate D2E/DX2                !
 ! D9    D(3,2,4,5)           -177.5898         estimate D2E/DX2                !
 ! D10   D(3,2,4,18)            -4.983          estimate D2E/DX2                !
 ! D11   D(2,4,5,6)            103.147          estimate D2E/DX2                !
 ! D12   D(2,4,5,17)          -132.6755         estimate D2E/DX2                !
 ! D13   D(2,4,5,27)           -13.4856         estimate D2E/DX2                !
 ! D14   D(18,4,5,6)           -69.074          estimate D2E/DX2                !
 ! D15   D(18,4,5,17)           55.1035         estimate D2E/DX2                !
 ! D16   D(18,4,5,27)          174.2934         estimate D2E/DX2                !
 ! D17   D(2,4,18,19)          -65.9155         Scan                            !
 ! D18   D(2,4,18,42)           60.5853         estimate D2E/DX2                !
 ! D19   D(2,4,18,43)          177.7136         estimate D2E/DX2                !
 ! D20   D(5,4,18,19)          106.9856         estimate D2E/DX2                !
 ! D21   D(5,4,18,42)         -126.5136         estimate D2E/DX2                !
 ! D22   D(5,4,18,43)           -9.3853         estimate D2E/DX2                !
 ! D23   D(4,5,6,7)            -86.5513         estimate D2E/DX2                !
 ! D24   D(4,5,6,15)           151.7869         estimate D2E/DX2                !
 ! D25   D(4,5,6,28)            31.3763         estimate D2E/DX2                !
 ! D26   D(17,5,6,7)           143.3941         estimate D2E/DX2                !
 ! D27   D(17,5,6,15)           21.7323         estimate D2E/DX2                !
 ! D28   D(17,5,6,28)          -98.6783         estimate D2E/DX2                !
 ! D29   D(27,5,6,7)            30.8316         estimate D2E/DX2                !
 ! D30   D(27,5,6,15)          -90.8302         estimate D2E/DX2                !
 ! D31   D(27,5,6,28)          148.7592         estimate D2E/DX2                !
 ! D32   D(4,5,17,16)         -167.9038         estimate D2E/DX2                !
 ! D33   D(4,5,17,40)          -50.7508         estimate D2E/DX2                !
 ! D34   D(4,5,17,41)           69.7714         estimate D2E/DX2                !
 ! D35   D(6,5,17,16)          -38.841          estimate D2E/DX2                !
 ! D36   D(6,5,17,40)           78.312          estimate D2E/DX2                !
 ! D37   D(6,5,17,41)         -161.1658         estimate D2E/DX2                !
 ! D38   D(27,5,17,16)          72.8536         estimate D2E/DX2                !
 ! D39   D(27,5,17,40)        -169.9934         estimate D2E/DX2                !
 ! D40   D(27,5,17,41)         -49.4713         estimate D2E/DX2                !
 ! D41   D(5,6,7,8)            151.4993         estimate D2E/DX2                !
 ! D42   D(15,6,7,8)           -92.3933         estimate D2E/DX2                !
 ! D43   D(28,6,7,8)            33.1665         estimate D2E/DX2                !
 ! D44   D(5,6,15,16)            3.7685         estimate D2E/DX2                !
 ! D45   D(5,6,15,36)          126.326          estimate D2E/DX2                !
 ! D46   D(5,6,15,37)         -115.1232         estimate D2E/DX2                !
 ! D47   D(7,6,15,16)         -113.3076         estimate D2E/DX2                !
 ! D48   D(7,6,15,36)            9.2498         estimate D2E/DX2                !
 ! D49   D(7,6,15,37)          127.8007         estimate D2E/DX2                !
 ! D50   D(28,6,15,16)         122.6763         estimate D2E/DX2                !
 ! D51   D(28,6,15,36)        -114.7663         estimate D2E/DX2                !
 ! D52   D(28,6,15,37)           3.7845         estimate D2E/DX2                !
 ! D53   D(6,7,8,9)            176.8336         estimate D2E/DX2                !
 ! D54   D(6,7,8,29)           -61.1883         estimate D2E/DX2                !
 ! D55   D(6,7,8,30)            56.5147         estimate D2E/DX2                !
 ! D56   D(7,8,9,10)           148.9302         estimate D2E/DX2                !
 ! D57   D(7,8,9,14)           -33.1956         estimate D2E/DX2                !
 ! D58   D(29,8,9,10)           27.4138         estimate D2E/DX2                !
 ! D59   D(29,8,9,14)         -154.7121         estimate D2E/DX2                !
 ! D60   D(30,8,9,10)          -90.5048         estimate D2E/DX2                !
 ! D61   D(30,8,9,14)           87.3693         estimate D2E/DX2                !
 ! D62   D(8,9,10,11)          177.3417         estimate D2E/DX2                !
 ! D63   D(8,9,10,31)           -2.9551         estimate D2E/DX2                !
 ! D64   D(14,9,10,11)          -0.5775         estimate D2E/DX2                !
 ! D65   D(14,9,10,31)         179.1257         estimate D2E/DX2                !
 ! D66   D(8,9,14,13)         -177.7781         estimate D2E/DX2                !
 ! D67   D(8,9,14,35)            2.9731         estimate D2E/DX2                !
 ! D68   D(10,9,14,13)           0.1194         estimate D2E/DX2                !
 ! D69   D(10,9,14,35)        -179.1294         estimate D2E/DX2                !
 ! D70   D(9,10,11,12)           0.5555         estimate D2E/DX2                !
 ! D71   D(9,10,11,32)         179.9169         estimate D2E/DX2                !
 ! D72   D(31,10,11,12)       -179.1467         estimate D2E/DX2                !
 ! D73   D(31,10,11,32)          0.2146         estimate D2E/DX2                !
 ! D74   D(10,11,12,13)         -0.0681         estimate D2E/DX2                !
 ! D75   D(10,11,12,33)        179.5988         estimate D2E/DX2                !
 ! D76   D(32,11,12,13)       -179.4272         estimate D2E/DX2                !
 ! D77   D(32,11,12,33)          0.2397         estimate D2E/DX2                !
 ! D78   D(11,12,13,14)         -0.3874         estimate D2E/DX2                !
 ! D79   D(11,12,13,34)        179.6612         estimate D2E/DX2                !
 ! D80   D(33,12,13,14)        179.9457         estimate D2E/DX2                !
 ! D81   D(33,12,13,34)         -0.0056         estimate D2E/DX2                !
 ! D82   D(12,13,14,9)           0.362          estimate D2E/DX2                !
 ! D83   D(12,13,14,35)        179.5989         estimate D2E/DX2                !
 ! D84   D(34,13,14,9)        -179.6865         estimate D2E/DX2                !
 ! D85   D(34,13,14,35)         -0.4496         estimate D2E/DX2                !
 ! D86   D(6,15,16,17)         -27.8216         estimate D2E/DX2                !
 ! D87   D(6,15,16,38)          89.3846         estimate D2E/DX2                !
 ! D88   D(6,15,16,39)        -150.7807         estimate D2E/DX2                !
 ! D89   D(36,15,16,17)       -149.1151         estimate D2E/DX2                !
 ! D90   D(36,15,16,38)        -31.9089         estimate D2E/DX2                !
 ! D91   D(36,15,16,39)         87.9258         estimate D2E/DX2                !
 ! D92   D(37,15,16,17)         91.078          estimate D2E/DX2                !
 ! D93   D(37,15,16,38)       -151.7158         estimate D2E/DX2                !
 ! D94   D(37,15,16,39)        -31.8812         estimate D2E/DX2                !
 ! D95   D(15,16,17,5)          40.9034         estimate D2E/DX2                !
 ! D96   D(15,16,17,40)        -77.3283         estimate D2E/DX2                !
 ! D97   D(15,16,17,41)        162.1561         estimate D2E/DX2                !
 ! D98   D(38,16,17,5)         -76.8358         estimate D2E/DX2                !
 ! D99   D(38,16,17,40)        164.9325         estimate D2E/DX2                !
 ! D100  D(38,16,17,41)         44.4169         estimate D2E/DX2                !
 ! D101  D(39,16,17,5)         163.8898         estimate D2E/DX2                !
 ! D102  D(39,16,17,40)         45.6581         estimate D2E/DX2                !
 ! D103  D(39,16,17,41)        -74.8575         estimate D2E/DX2                !
 ! D104  D(4,18,19,20)         -53.5857         estimate D2E/DX2                !
 ! D105  D(4,18,19,21)         131.8201         Scan                            !
 ! D106  D(42,18,19,20)       -178.3821         estimate D2E/DX2                !
 ! D107  D(42,18,19,21)          7.0237         estimate D2E/DX2                !
 ! D108  D(43,18,19,20)         64.456          estimate D2E/DX2                !
 ! D109  D(43,18,19,21)       -110.1382         estimate D2E/DX2                !
 ! D110  D(18,19,21,22)        -17.34           estimate D2E/DX2                !
 ! D111  D(18,19,21,23)        172.7348         estimate D2E/DX2                !
 ! D112  D(20,19,21,22)        168.2559         estimate D2E/DX2                !
 ! D113  D(20,19,21,23)         -1.6694         estimate D2E/DX2                !
 ! D114  D(19,21,22,44)         86.7227         estimate D2E/DX2                !
 ! D115  D(19,21,22,45)       -154.5399         estimate D2E/DX2                !
 ! D116  D(19,21,22,46)        -36.8833         estimate D2E/DX2                !
 ! D117  D(23,21,22,44)       -103.2033         estimate D2E/DX2                !
 ! D118  D(23,21,22,45)         15.5341         estimate D2E/DX2                !
 ! D119  D(23,21,22,46)        133.1907         estimate D2E/DX2                !
 ! D120  D(19,21,23,47)       -134.7715         estimate D2E/DX2                !
 ! D121  D(19,21,23,48)        -14.5441         estimate D2E/DX2                !
 ! D122  D(19,21,23,49)        105.11           estimate D2E/DX2                !
 ! D123  D(22,21,23,47)         54.5677         estimate D2E/DX2                !
 ! D124  D(22,21,23,48)        174.7952         estimate D2E/DX2                !
 ! D125  D(22,21,23,49)        -65.5508         estimate D2E/DX2                !
 --------------------------------------------------------------------------------
 Trust Radius=3.00D-01 FncErr=1.00D-07 GrdErr=1.00D-06
 Number of optimizations in scan=1369
 Number of steps in this run=    276 maximum allowed number of steps=    294.
 GradGradGradGradGradGradGradGradGradGradGradGradGradGradGradGradGradGrad

                          Input orientation:                          
 ---------------------------------------------------------------------
 Center     Atomic      Atomic             Coordinates (Angstroms)
 Number     Number       Type             X           Y           Z
 ---------------------------------------------------------------------
      1          6           0        0.295782   -0.397242    2.809758
      2          6           0        1.498872   -0.103211    1.931152
      3          8           0        2.290077    0.795123    2.223564
      4          7           0        1.693608   -0.852346    0.794678
      5          6           0        0.783331   -1.904322    0.338016
      6          6           0       -0.134784   -1.510651   -0.843721
      7          8           0       -1.295037   -0.893044   -0.285081
      8          6           0       -1.906371    0.062121   -1.145715
      9          6           0       -3.162318    0.599816   -0.501070
     10          6           0       -3.575129    1.911905   -0.758744
     11          6           0       -4.761790    2.404746   -0.214817
     12          6           0       -5.546033    1.592124    0.605170
     13          6           0       -5.135689    0.285247    0.875036
     14          6           0       -3.953937   -0.209204    0.322886
     15          6           0       -0.427747   -2.837818   -1.598472
     16          6           0        0.250037   -3.956090   -0.771196
     17          6           0        1.421629   -3.243732   -0.074040
     18          6           0        2.807153   -0.418176   -0.047461
     19          6           0        2.576739    0.972533   -0.672570
     20          8           0        1.543576    1.179666   -1.313026
     21          7           0        3.581196    1.890540   -0.586827
     22          6           0        4.702185    1.794780    0.348716
     23          6           0        3.435731    3.147785   -1.311901
     24          1           0        0.303641    0.331864    3.619243
     25          1           0        0.341712   -1.403157    3.240950
     26          1           0       -0.633917   -0.312060    2.240685
     27          1           0        0.110466   -2.120861    1.169014
     28          1           0        0.380431   -0.785772   -1.481444
     29          1           0       -1.201531    0.876611   -1.361810
     30          1           0       -2.162501   -0.412025   -2.109255
     31          1           0       -2.960455    2.553287   -1.385715
     32          1           0       -5.067681    3.426095   -0.423291
     33          1           0       -6.466867    1.975892    1.034912
     34          1           0       -5.738128   -0.351662    1.516987
     35          1           0       -3.627744   -1.221752    0.534905
     36          1           0       -1.504886   -2.989682   -1.711728
     37          1           0        0.004851   -2.800825   -2.604363
     38          1           0       -0.444413   -4.342240   -0.015309
     39          1           0        0.568116   -4.807016   -1.380347
     40          1           0        2.242606   -3.093018   -0.785532
     41          1           0        1.826751   -3.791657    0.782045
     42          1           0        3.737483   -0.477451    0.517536
     43          1           0        2.888444   -1.107199   -0.890979
     44          1           0        5.531781    1.200040   -0.054877
     45          1           0        5.077215    2.803585    0.536443
     46          1           0        4.364307    1.381933    1.299868
     47          1           0        4.368616    3.386790   -1.833928
     48          1           0        2.625879    3.043644   -2.031421
     49          1           0        3.197294    3.971642   -0.627360
 ---------------------------------------------------------------------
                    Distance matrix (angstroms):
                    1          2          3          4          5
     1  C    0.000000
     2  C    1.518495   0.000000
     3  O    2.396366   1.232280   0.000000
     4  N    2.494310   1.375027   2.260895   0.000000
     5  C    2.935729   2.508801   3.621129   1.464171   0.000000
     6  C    3.843563   3.514205   4.539249   2.541797   1.547390
     7  O    3.514904   3.652595   4.690016   3.177977   2.393856
     8  C    4.550413   4.592399   5.431345   4.190611   3.647308
     9  C    4.890211   5.304398   6.098392   5.231420   4.747938
    10  C    5.748941   6.086191   6.673980   6.149292   5.895985
    11  C    6.525199   7.077494   7.633179   7.300677   7.044293
    12  C    6.553212   7.366347   8.041084   7.643543   7.235838
    13  C    5.806016   6.729315   7.564423   6.923863   6.333830
    14  C    4.927474   5.686025   6.603708   5.703594   5.031437
    15  C    5.090422   4.862940   5.932351   3.764228   2.467410
    16  C    5.048834   4.868978   5.975314   3.764185   2.392594
    17  C    4.205512   3.726880   4.727106   2.558783   1.539881
    18  C    3.804093   2.392846   2.626217   1.462082   2.540291
    19  C    4.382426   3.016354   2.915689   2.502583   3.537498
    20  O    4.587044   3.488906   3.634915   2.931552   3.579790
    21  N    5.250208   3.827706   3.281040   3.604853   4.804619
    22  C    5.502552   4.045700   3.214441   4.032083   5.388960
    23  C    6.278102   4.983753   4.398529   4.844968   5.939801
    24  H    1.089460   2.113651   2.471529   3.363410   3.999635
    25  H    1.095400   2.178176   3.108639   2.848730   2.978795
    26  H    1.093362   2.165229   3.126642   2.792887   2.857278
    27  H    2.386890   2.565041   3.790217   2.062910   1.090960
    28  H    4.309586   3.655491   4.457921   2.628611   2.173457
    29  H    4.611575   4.369877   5.005285   4.002694   3.816107
    30  H    5.499097   5.461310   6.328979   4.847297   4.110233
    31  H    6.075417   6.159885   6.609548   6.165448   6.071035
    32  H    7.337387   7.817866   8.250119   8.093425   7.951558
    33  H    7.383445   8.281239   8.915782   8.640023   8.252702
    34  H    6.171013   7.253098   8.140420   7.483523   6.806626
    35  H    4.609645   5.429810   6.476107   5.340480   4.467913
    36  H    5.514253   5.533973   6.649287   4.591366   3.258127
    37  H    5.930814   5.484534   6.439098   4.266374   3.172908
    38  H    4.908350   5.053161   6.235582   4.172119   2.752388
    39  H    6.089109   5.827359   6.880210   4.651546   3.380048
    40  H    4.897289   4.107610   4.916762   2.796261   2.191995
    41  H    4.239993   3.877188   4.830238   2.942352   2.201799
    42  H    4.135943   2.673901   2.573900   2.096373   3.285605
    43  H    4.573991   3.302018   3.698277   2.081832   2.564631
    44  H    6.178441   4.680505   3.982951   4.434592   5.686757
    45  H    6.186708   4.816556   3.827327   4.988117   6.375045
    46  H    4.690216   3.288600   2.345206   3.518501   4.954596
    47  H    7.243666   5.881442   5.244073   5.659992   6.750369
    48  H    6.380130   5.184094   4.824262   4.902520   5.787191
    49  H    6.270542   5.102455   4.363609   5.249202   6.425428
                    6          7          8          9         10
     6  C    0.000000
     7  O    1.428182   0.000000
     8  C    2.388165   1.423643   0.000000
     9  C    3.706406   2.400421   1.510657   0.000000
    10  C    4.853564   3.645671   2.521151   1.399424   0.000000
    11  C    6.093853   4.785262   3.808921   2.428585   1.395318
    12  C    6.403758   5.003956   4.318987   2.809010   2.418054
    13  C    5.584660   4.181489   3.815981   2.426276   2.783990
    14  C    4.200079   2.811941   2.534351   1.400028   2.410917
    15  C    1.554622   2.501866   3.286482   4.527637   5.759429
    16  C    2.476594   3.464940   4.575629   5.698545   7.004671
    17  C    2.453243   3.598687   4.811729   5.997315   7.212281
    18  C    3.237673   4.136415   4.863554   6.072615   6.831451
    19  C    3.680741   4.315226   4.599021   5.753704   6.223771
    20  O    3.205456   3.662038   3.630294   4.810503   5.200437
    21  N    5.044066   5.622903   5.811098   6.866462   7.158422
    22  C    5.978633   6.602482   6.993457   8.000030   8.351893
    23  C    5.888021   6.305777   6.171466   7.119259   7.140416
    24  H    4.848209   4.393167   5.259443   5.390886   6.058726
    25  H    4.113774   3.920722   5.142348   5.503893   6.506061
    26  H    3.346538   2.674718   3.636874   3.839473   4.753243
    27  H    2.117453   2.365875   3.767096   4.571912   5.793364
    28  H    1.094343   2.061549   2.461930   3.928366   4.842129
    29  H    2.665593   2.073588   1.098586   2.159207   2.658851
    30  H    2.630626   2.076411   1.104005   2.147025   3.036453
    31  H    4.979334   3.982739   2.715622   2.153925   1.087331
    32  H    6.991545   5.736454   4.672483   3.409444   2.152443
    33  H    7.468636   6.059786   5.405162   3.895237   3.403446
    34  H    6.189803   4.825101   4.684395   3.407736   3.870562
    35  H    3.766277   2.494383   2.726892   2.146620   3.390590
    36  H    2.195028   2.544651   3.129706   4.134884   5.405519
    37  H    2.187214   3.272370   3.738567   5.100898   6.199386
    38  H    2.966485   3.562765   4.776352   5.660997   7.033378
    39  H    3.412925   4.471032   5.466867   6.627450   7.918129
    40  H    2.856441   4.195862   5.224810   6.552186   7.674374
    41  H    3.419609   4.391614   5.701233   6.769212   8.005308
    42  H    4.232608   5.113039   5.908522   7.057288   7.798218
    43  H    3.050396   4.232551   4.941908   6.299020   7.135142
    44  H    6.330883   7.144189   7.603347   8.726208   9.161768
    45  H    6.905246   7.412527   7.688677   8.592027   8.794070
    46  H    5.762277   6.302044   6.858876   7.778507   8.219087
    47  H    6.726518   7.265870   7.134600   8.139945   8.150729
    48  H    5.456509   5.824156   5.496840   6.466645   6.430633
    49  H    6.419119   6.630487   6.449841   7.199293   7.079936
                   11         12         13         14         15
    11  C    0.000000
    12  C    1.395625   0.000000
    13  C    2.412438   1.396115   0.000000
    14  C    2.788276   2.420586   1.394951   0.000000
    15  C    6.941391   7.118797   6.167373   4.799505   0.000000
    16  C    8.117155   8.140730   7.050182   5.736686   1.547355
    17  C    8.376144   8.508534   7.506854   6.185679   2.430813
    18  C    8.079963   8.616435   8.027113   6.774449   4.327226
    19  C    7.490980   8.245965   7.896138   6.710973   4.939940
    20  O    6.516481   7.356096   7.085209   5.901510   4.484169
    21  N    8.367091   9.209572   8.983212   7.874943   6.281116
    22  C    9.500340  10.253429   9.966919   8.885104   7.181136
    23  C    8.303918   9.314898   9.297637   8.279438   7.129939
    24  H    6.682473   6.700118   6.092549   5.411626   6.148688
    25  H    7.244873   7.112284   6.200821   5.328529   5.105911
    26  H    5.518139   5.516313   4.742122   3.835501   4.600118
    27  H    6.792274   6.789710   5.779093   4.570529   2.909068
    28  H    6.182733   6.717985   6.093247   4.730199   2.208561
    29  H    4.040573   4.822413   4.564076   3.404840   3.801544
    30  H    4.275441   4.778389   4.269898   3.027489   3.025680
    31  H    2.153572   3.401863   3.871259   3.396716   5.960192
    32  H    1.086363   2.156386   3.399295   3.874610   7.883314
    33  H    2.157087   1.086228   2.157748   3.405355   8.159503
    34  H    3.398554   2.155601   1.086594   2.151629   6.639819
    35  H    3.872936   3.406269   2.158850   1.084715   4.171684
    36  H    6.476729   6.533899   5.531658   4.227122   1.093672
    37  H    7.451763   7.772478   6.932186   5.563927   1.095594
    38  H    8.012576   7.850363   6.649393   5.432598   2.184026
    39  H    9.043001   9.070507   7.971906   6.670071   2.217445
    40  H    8.922594   9.194972   8.283079   6.924025   2.802995
    41  H    9.099342   9.130954   8.068790   6.816242   3.414591
    42  H    9.004501   9.511808   8.913063   7.698557   5.234306
    43  H    8.444941   8.981381   8.333332   7.006999   3.806929
    44  H   10.365062  11.104384  10.746930   9.597266   7.362266
    45  H    9.875702  10.692322  10.524261   9.522826   8.166266
    46  H    9.307312   9.936882   9.572519   8.525221   7.012165
    47  H    9.324712  10.366788  10.358082   9.319222   7.861697
    48  H    7.634520   8.708540   8.734883   7.708292   6.641060
    49  H    8.122338   9.144780   9.235004   8.338018   7.775135
                   16         17         18         19         20
    16  C    0.000000
    17  C    1.538216   0.000000
    18  C    4.424869   3.147086   0.000000
    19  C    5.451109   4.412415   1.542052   0.000000
    20  O    5.323797   4.595259   2.398204   1.233091   0.000000
    21  N    6.731545   5.593517   2.494038   1.363460   2.276972
    22  C    7.358555   6.027219   2.940285   2.497326   3.621680
    23  C    7.804233   6.814719   3.835361   2.424527   2.730155
    24  H    6.137213   5.260715   4.502760   4.898682   5.155917
    25  H    4.756384   3.942473   4.226374   5.094594   5.371606
    26  H    4.809548   4.263557   4.133744   4.521675   4.426690
    27  H    2.674315   2.127245   3.413366   4.363831   4.371248
    28  H    3.251518   3.017689   2.842607   2.927402   2.290026
    29  H    5.080440   5.051391   4.412883   3.841819   2.762216
    30  H    4.491229   5.000665   5.380380   5.142126   4.111261
    31  H    7.284015   7.384347   6.624637   5.802403   4.709396
    32  H    9.104714   9.312342   8.771128   8.032388   7.038948
    33  H    9.141512   9.523792   9.639011   9.257917   8.385344
    34  H    7.354305   7.884006   8.687563   8.699693   7.960977
    35  H    4.921350   5.473151   6.510974   6.690926   5.993681
    36  H    2.213210   3.363191   5.289245   5.782617   5.180304
    37  H    2.180655   2.933592   4.479694   4.958292   4.458647
    38  H    1.096694   2.166168   5.096273   6.148672   6.010625
    39  H    1.093762   2.208796   5.104095   6.159440   6.066005
    40  H    2.171504   1.096786   2.831650   4.080822   4.361504
    41  H    2.219374   1.094179   3.609660   5.037449   5.402181
    42  H    5.091565   3.655879   1.090068   2.205931   3.303063
    43  H    3.884806   2.717298   1.092192   2.114272   2.686363
    44  H    7.415902   6.053167   3.168955   3.027470   4.182001
    45  H    8.408613   7.092675   3.984202   3.326687   4.306304
    46  H    7.050604   5.651881   2.735035   2.693236   3.850279
    47  H    8.485869   7.466308   4.484127   3.223075   3.622649
    48  H    7.498604   6.694226   3.994140   2.477578   2.271978
    49  H    8.459075   7.451226   4.445109   3.062970   3.316632
                   21         22         23         24         25
    21  N    0.000000
    22  C    1.463225   0.000000
    23  C    1.458615   2.488409   0.000000
    24  H    5.555435   5.673064   6.485027   0.000000
    25  H    5.999548   6.132336   7.142302   1.776191   0.000000
    26  H    5.532942   6.040886   6.415094   1.787198   1.772815
    27  H    5.587511   6.090075   6.706039   3.472290   2.204879
    28  H    4.267069   5.355959   4.983621   5.222261   4.762737
    29  H    4.950063   6.214724   5.163809   5.231939   5.363240
    30  H    6.372570   7.618105   6.681933   6.280996   5.989835
    31  H    6.623493   7.893012   6.424179   6.374845   6.925589
    32  H    8.785656   9.935163   8.554245   7.400503   8.124646
    33  H   10.178452  11.191577  10.244135   7.431108   7.914627
    34  H    9.813425  10.722509  10.218044   6.433480   6.406414
    35  H    7.931801   8.861255   8.508597   5.232844   4.807512
    36  H    7.137941   8.103347   7.889110   6.536260   5.518696
    37  H    6.234549   7.204527   6.987657   6.973972   6.019521
    38  H    7.441754   8.017668   8.534468   5.967981   4.456391
    39  H    7.386852   7.978966   8.456167   7.174534   5.744032
    40  H    5.164025   5.588078   6.375597   5.906898   4.762519
    41  H    6.102397   6.297950   7.424910   5.231920   3.735838
    42  H    2.617523   2.474305   4.071883   4.697536   4.450301
    43  H    3.091739   3.639778   4.310637   5.393905   4.862743
    44  H    2.136479   1.097649   3.125259   6.448747   6.676521
    45  H    2.081696   1.092509   2.495860   6.196779   6.887382
    46  H    2.105128   1.090548   3.286613   4.792823   5.263630
    47  H    2.100965   2.722076   1.095404   7.456116   8.056918
    48  H    2.080656   3.396433   1.088308   6.684051   7.265628
    49  H    2.116603   2.820665   1.097355   6.297210   7.211563
                   26         27         28         29         30
    26  H    0.000000
    27  H    2.230324   0.000000
    28  H    3.886843   2.979978   0.000000
    29  H    3.835765   4.136574   2.297919   0.000000
    30  H    4.611783   4.339763   2.645815   1.772772   0.000000
    31  H    5.174338   6.148565   4.724405   2.430150   3.154888
    32  H    6.381915   7.753539   6.967168   4.725230   5.100364
    33  H    6.380589   7.750011   7.800277   5.888672   5.840848
    34  H    5.155412   6.120229   6.827577   5.511519   5.092974
    35  H    3.563738   3.896756   4.507905   3.726549   3.129565
    36  H    4.852815   3.415097   2.909411   3.893930   2.689759
    37  H    5.484201   3.835607   2.337188   4.064829   3.263267
    38  H    4.622529   2.577797   3.934258   5.442674   4.773157
    39  H    5.895879   3.731503   4.026891   5.952782   5.225277
    40  H    5.016583   3.051452   3.045550   5.286977   5.323996
    41  H    4.504455   2.426301   4.031199   5.963165   5.974584
    42  H    4.701674   4.034907   3.919283   5.455207   6.458647
    43  H    4.779811   3.603921   2.596554   4.570020   5.242090
    44  H    6.750695   6.474330   5.702188   6.866598   8.125343
    45  H    6.725230   7.022742   6.246209   6.836611   8.351847
    46  H    5.360690   5.511973   5.320330   6.190188   7.578894
    47  H    7.437022   7.581802   5.782745   6.127841   7.560575
    48  H    6.335449   6.575880   4.473135   4.448986   5.905615
    49  H    6.422925   7.062157   5.594387   5.428471   7.080957
                   31         32         33         34         35
    31  H    0.000000
    32  H    2.475572   0.000000
    33  H    4.299738   2.487401   0.000000
    34  H    4.957809   4.299491   2.486155   0.000000
    35  H    4.287770   4.959238   4.305294   2.485008   0.000000
    36  H    5.740163   7.450891   7.538051   5.941724   3.560823
    37  H    6.240566   8.322391   8.828617   7.481025   5.054129
    38  H    7.467046   9.049204   8.791570   6.804121   4.491523
    39  H    8.162408  10.023087  10.066395   8.247026   5.841879
    40  H    7.701482   9.801548  10.240253   8.746928   6.301286
    41  H    8.238619  10.053953  10.105081   8.342727   6.034650
    42  H    7.594084   9.677486  10.507870   9.529005   7.402760
    43  H    6.917625   9.168937  10.036750   8.988152   6.671355
    44  H    8.701752  10.836957  12.072992  11.484310   9.492619
    45  H    8.268100  10.209188  11.584445  11.308788   9.590602
    46  H    7.889015   9.803585  10.850683  10.252399   8.440215
    47  H    7.389919   9.541234  11.297281  11.284987   9.528473
    48  H    5.644866   7.869131   9.655078   9.699274   7.992961
    49  H    6.364331   8.285474  10.007106  10.155341   8.654672
                   36         37         38         39         40
    36  H    0.000000
    37  H    1.764021   0.000000
    38  H    2.414923   3.046473   0.000000
    39  H    2.776662   2.416668   1.761976   0.000000
    40  H    3.861634   2.898460   3.061678   2.468909   0.000000
    41  H    4.238145   3.970998   2.469231   2.700195   1.765879
    42  H    6.226022   5.392297   5.719158   5.691395   3.282352
    43  H    4.849610   3.757547   4.726545   4.394548   2.090862
    44  H    8.355454   7.283801   8.150664   7.904401   5.457369
    45  H    9.052086   8.185533   9.047410   9.051370   6.674770
    46  H    7.913795   7.193284   7.590760   7.739361   5.373611
    47  H    8.670199   7.610689   9.284962   9.043671   6.899780
    48  H    7.318910   6.430853   8.248799   8.141938   6.273576
    49  H    8.470324   7.743807   9.097102   9.194803   7.130629
                   41         42         43         44         45
    41  H    0.000000
    42  H    3.834687   0.000000
    43  H    3.336543   1.761069   0.000000
    44  H    6.272537   2.522130   3.606889   0.000000
    45  H    7.356837   3.544071   4.703454   1.768515   0.000000
    46  H    5.785617   2.112406   3.629568   1.797614   1.764129
    47  H    8.051987   4.567283   4.824521   3.049566   2.541830
    48  H    7.434752   4.486753   4.312661   3.968610   3.558174
    49  H    8.008347   4.625691   5.095048   3.668698   2.500579
                   46         47         48         49
    46  H    0.000000
    47  H    3.720235   0.000000
    48  H    4.108637   1.787144   0.000000
    49  H    3.432597   1.780408   1.777381   0.000000
 Stoichiometry    C18H26N2O3
 Framework group  C1[X(C18H26N2O3)]
 Deg. of freedom   141
 Full point group                 C1      NOp   1
 Largest Abelian subgroup         C1      NOp   1
 Largest concise Abelian subgroup C1      NOp   1
                         Standard orientation:                         
 ---------------------------------------------------------------------
 Center     Atomic      Atomic             Coordinates (Angstroms)
 Number     Number       Type             X           Y           Z
 ---------------------------------------------------------------------
      1          6           0       -0.295782    0.397242    2.809758
      2          6           0       -1.498872    0.103211    1.931152
      3          8           0       -2.290077   -0.795123    2.223564
      4          7           0       -1.693608    0.852346    0.794678
      5          6           0       -0.783331    1.904322    0.338016
      6          6           0        0.134784    1.510651   -0.843721
      7          8           0        1.295037    0.893044   -0.285081
      8          6           0        1.906371   -0.062121   -1.145715
      9          6           0        3.162318   -0.599816   -0.501070
     10          6           0        3.575129   -1.911905   -0.758744
     11          6           0        4.761790   -2.404746   -0.214817
     12          6           0        5.546033   -1.592124    0.605170
     13          6           0        5.135689   -0.285247    0.875036
     14          6           0        3.953937    0.209204    0.322886
     15          6           0        0.427747    2.837818   -1.598472
     16          6           0       -0.250037    3.956090   -0.771196
     17          6           0       -1.421629    3.243732   -0.074040
     18          6           0       -2.807153    0.418176   -0.047461
     19          6           0       -2.576739   -0.972533   -0.672570
     20          8           0       -1.543576   -1.179666   -1.313026
     21          7           0       -3.581196   -1.890540   -0.586827
     22          6           0       -4.702185   -1.794780    0.348716
     23          6           0       -3.435731   -3.147785   -1.311901
     24          1           0       -0.303641   -0.331864    3.619243
     25          1           0       -0.341712    1.403157    3.240950
     26          1           0        0.633917    0.312060    2.240685
     27          1           0       -0.110466    2.120861    1.169014
     28          1           0       -0.380431    0.785772   -1.481444
     29          1           0        1.201531   -0.876611   -1.361810
     30          1           0        2.162501    0.412025   -2.109255
     31          1           0        2.960455   -2.553287   -1.385715
     32          1           0        5.067681   -3.426095   -0.423291
     33          1           0        6.466867   -1.975892    1.034912
     34          1           0        5.738128    0.351662    1.516987
     35          1           0        3.627744    1.221752    0.534905
     36          1           0        1.504886    2.989682   -1.711728
     37          1           0       -0.004851    2.800825   -2.604363
     38          1           0        0.444413    4.342240   -0.015309
     39          1           0       -0.568116    4.807016   -1.380347
     40          1           0       -2.242606    3.093018   -0.785532
     41          1           0       -1.826751    3.791657    0.782045
     42          1           0       -3.737483    0.477451    0.517536
     43          1           0       -2.888444    1.107199   -0.890979
     44          1           0       -5.531781   -1.200040   -0.054877
     45          1           0       -5.077215   -2.803585    0.536443
     46          1           0       -4.364307   -1.381933    1.299868
     47          1           0       -4.368616   -3.386790   -1.833928
     48          1           0       -2.625879   -3.043644   -2.031421
     49          1           0       -3.197294   -3.971642   -0.627360
 ---------------------------------------------------------------------
 Rotational constants (GHZ):      0.3323832      0.1580621      0.1320967
 Standard basis: 6-31G(d,p) (6D, 7F)
 There are   475 symmetry adapted basis functions of A   symmetry.
 Integral buffers will be    131072 words long.
 Raffenetti 2 integral format.
 Two-electron integral symmetry is turned on.
   475 basis functions,   826 primitive gaussians,   475 cartesian basis functions
    86 alpha electrons       86 beta electrons
       nuclear repulsion energy      2020.4989280323 Hartrees.
 NAtoms=   49 NActive=   49 NUniq=   49 SFac= 1.00D+00 NAtFMM=   60 NAOKFM=F Big=F
 One-electron integrals computed using PRISM.
 NBasis=   475 RedAO= T  NBF=   475
 NBsUse=   475 1.00D-06 NBFU=   475
 Harris functional with IExCor=  402 diagonalized for initial guess.
 ExpMin= 1.61D-01 ExpMax= 5.48D+03 ExpMxC= 8.25D+02 IAcc=1 IRadAn=         1 AccDes= 0.00D+00
 HarFok:  IExCor=  402 AccDes= 0.00D+00 IRadAn=         1 IDoV= 1
 ScaDFX=  1.000000  1.000000  1.000000  1.000000
 FoFCou: FMM=F IPFlag=           0 FMFlag=      100000 FMFlg1=           0
         NFxFlg=           0 DoJE=T BraDBF=F KetDBF=T FulRan=T
         Omega=  0.000000  0.000000  1.000000  0.000000  0.000000 ICntrl=     500 IOpCl=  0
         NMat0=    1 NMatS0=    1 NMatT0=    0 NMatD0=    1 NMtDS0=    0 NMtDT0=    0
         I1Cent=           4 NGrid=           0.
 Petite list used in FoFCou.
 Initial guess orbital symmetries:
       Occupied  (A) (A) (A) (A) (A) (A) (A) (A) (A) (A) (A) (A)
                 (A) (A) (A) (A) (A) (A) (A) (A) (A) (A) (A) (A)
                 (A) (A) (A) (A) (A) (A) (A) (A) (A) (A) (A) (A)
                 (A) (A) (A) (A) (A) (A) (A) (A) (A) (A) (A) (A)
                 (A) (A) (A) (A) (A) (A) (A) (A) (A) (A) (A) (A)
                 (A) (A) (A) (A) (A) (A) (A) (A) (A) (A) (A) (A)
                 (A) (A) (A) (A) (A) (A) (A) (A) (A) (A) (A) (A)
                 (A) (A)
       Virtual   (A) (A) (A) (A) (A) (A) (A) (A) (A) (A) (A) (A)
                 (A) (A) (A) (A) (A) (A) (A) (A) (A) (A) (A) (A)
                 (A) (A) (A) (A) (A) (A) (A) (A) (A) (A) (A) (A)
                 (A) (A) (A) (A) (A) (A) (A) (A) (A) (A) (A) (A)
                 (A) (A) (A) (A) (A) (A) (A) (A) (A) (A) (A) (A)
                 (A) (A) (A) (A) (A) (A) (A) (A) (A) (A) (A) (A)
                 (A) (A) (A) (A) (A) (A) (A) (A) (A) (A) (A) (A)
                 (A) (A) (A) (A) (A) (A) (A) (A) (A) (A) (A) (A)
                 (A) (A) (A) (A) (A) (A) (A) (A) (A) (A) (A) (A)
                 (A) (A) (A) (A) (A) (A) (A) (A) (A) (A) (A) (A)
                 (A) (A) (A) (A) (A) (A) (A) (A) (A) (A) (A) (A)
                 (A) (A) (A) (A) (A) (A) (A) (A) (A) (A) (A) (A)
                 (A) (A) (A) (A) (A) (A) (A) (A) (A) (A) (A) (A)
                 (A) (A) (A) (A) (A) (A) (A) (A) (A) (A) (A) (A)
                 (A) (A) (A) (A) (A) (A) (A) (A) (A) (A) (A) (A)
                 (A) (A) (A) (A) (A) (A) (A) (A) (A) (A) (A) (A)
                 (A) (A) (A) (A) (A) (A) (A) (A) (A) (A) (A) (A)
                 (A) (A) (A) (A) (A) (A) (A) (A) (A) (A) (A) (A)
                 (A) (A) (A) (A) (A) (A) (A) (A) (A) (A) (A) (A)
                 (A) (A) (A) (A) (A) (A) (A) (A) (A) (A) (A) (A)
                 (A) (A) (A) (A) (A) (A) (A) (A) (A) (A) (A) (A)
                 (A) (A) (A) (A) (A) (A) (A) (A) (A) (A) (A) (A)
                 (A) (A) (A) (A) (A) (A) (A) (A) (A) (A) (A) (A)
                 (A) (A) (A) (A) (A) (A) (A) (A) (A) (A) (A) (A)
                 (A) (A) (A) (A) (A) (A) (A) (A) (A) (A) (A) (A)
                 (A) (A) (A) (A) (A) (A) (A) (A) (A) (A) (A) (A)
                 (A) (A) (A) (A) (A) (A) (A) (A) (A) (A) (A) (A)
                 (A) (A) (A) (A) (A) (A) (A) (A) (A) (A) (A) (A)
                 (A) (A) (A) (A) (A) (A) (A) (A) (A) (A) (A) (A)
                 (A) (A) (A) (A) (A) (A) (A) (A) (A) (A) (A) (A)
                 (A) (A) (A) (A) (A) (A) (A) (A) (A) (A) (A) (A)
                 (A) (A) (A) (A) (A) (A) (A) (A) (A) (A) (A) (A)
                 (A) (A) (A) (A) (A)
 The electronic state of the initial guess is 1-A.
 Requested convergence on RMS density matrix=1.00D-08 within 128 cycles.
 Requested convergence on MAX density matrix=1.00D-06.
 Requested convergence on             energy=1.00D-06.
 No special actions if energy rises.
 Integral accuracy reduced to 1.0D-05 until final iterations.
 Initial convergence to 1.0D-05 achieved.  Increase integral accuracy.
 SCF Done:  E(RB3LYP) =  -1036.79777253     A.U. after   15 cycles
             Convg  =    0.8235D-08             -V/T =  2.0095

 **********************************************************************

            Population analysis using the SCF density.

 **********************************************************************

 Orbital symmetries:
       Occupied  (A) (A) (A) (A) (A) (A) (A) (A) (A) (A) (A) (A)
                 (A) (A) (A) (A) (A) (A) (A) (A) (A) (A) (A) (A)
                 (A) (A) (A) (A) (A) (A) (A) (A) (A) (A) (A) (A)
                 (A) (A) (A) (A) (A) (A) (A) (A) (A) (A) (A) (A)
                 (A) (A) (A) (A) (A) (A) (A) (A) (A) (A) (A) (A)
                 (A) (A) (A) (A) (A) (A) (A) (A) (A) (A) (A) (A)
                 (A) (A) (A) (A) (A) (A) (A) (A) (A) (A) (A) (A)
                 (A) (A)
       Virtual   (A) (A) (A) (A) (A) (A) (A) (A) (A) (A) (A) (A)
                 (A) (A) (A) (A) (A) (A) (A) (A) (A) (A) (A) (A)
                 (A) (A) (A) (A) (A) (A) (A) (A) (A) (A) (A) (A)
                 (A) (A) (A) (A) (A) (A) (A) (A) (A) (A) (A) (A)
                 (A) (A) (A) (A) (A) (A) (A) (A) (A) (A) (A) (A)
                 (A) (A) (A) (A) (A) (A) (A) (A) (A) (A) (A) (A)
                 (A) (A) (A) (A) (A) (A) (A) (A) (A) (A) (A) (A)
                 (A) (A) (A) (A) (A) (A) (A) (A) (A) (A) (A) (A)
                 (A) (A) (A) (A) (A) (A) (A) (A) (A) (A) (A) (A)
                 (A) (A) (A) (A) (A) (A) (A) (A) (A) (A) (A) (A)
                 (A) (A) (A) (A) (A) (A) (A) (A) (A) (A) (A) (A)
                 (A) (A) (A) (A) (A) (A) (A) (A) (A) (A) (A) (A)
                 (A) (A) (A) (A) (A) (A) (A) (A) (A) (A) (A) (A)
                 (A) (A) (A) (A) (A) (A) (A) (A) (A) (A) (A) (A)
                 (A) (A) (A) (A) (A) (A) (A) (A) (A) (A) (A) (A)
                 (A) (A) (A) (A) (A) (A) (A) (A) (A) (A) (A) (A)
                 (A) (A) (A) (A) (A) (A) (A) (A) (A) (A) (A) (A)
                 (A) (A) (A) (A) (A) (A) (A) (A) (A) (A) (A) (A)
                 (A) (A) (A) (A) (A) (A) (A) (A) (A) (A) (A) (A)
                 (A) (A) (A) (A) (A) (A) (A) (A) (A) (A) (A) (A)
                 (A) (A) (A) (A) (A) (A) (A) (A) (A) (A) (A) (A)
                 (A) (A) (A) (A) (A) (A) (A) (A) (A) (A) (A) (A)
                 (A) (A) (A) (A) (A) (A) (A) (A) (A) (A) (A) (A)
                 (A) (A) (A) (A) (A) (A) (A) (A) (A) (A) (A) (A)
                 (A) (A) (A) (A) (A) (A) (A) (A) (A) (A) (A) (A)
                 (A) (A) (A) (A) (A) (A) (A) (A) (A) (A) (A) (A)
                 (A) (A) (A) (A) (A) (A) (A) (A) (A) (A) (A) (A)
                 (A) (A) (A) (A) (A) (A) (A) (A) (A) (A) (A) (A)
                 (A) (A) (A) (A) (A) (A) (A) (A) (A) (A) (A) (A)
                 (A) (A) (A) (A) (A) (A) (A) (A) (A) (A) (A) (A)
                 (A) (A) (A) (A) (A) (A) (A) (A) (A) (A) (A) (A)
                 (A) (A) (A) (A) (A) (A) (A) (A) (A) (A) (A) (A)
                 (A) (A) (A) (A) (A)
 The electronic state is 1-A.
 Alpha  occ. eigenvalues --  -19.14305 -19.10557 -19.10520 -14.36194 -14.36045
 Alpha  occ. eigenvalues --  -10.28001 -10.27915 -10.22604 -10.22484 -10.22416
 Alpha  occ. eigenvalues --  -10.22353 -10.21334 -10.20916 -10.19070 -10.18804
 Alpha  occ. eigenvalues --  -10.18678 -10.18165 -10.18110 -10.18068 -10.18025
 Alpha  occ. eigenvalues --  -10.18008 -10.17874 -10.17709  -1.03137  -1.02403
 Alpha  occ. eigenvalues --   -1.01966  -0.92796  -0.92490  -0.84521  -0.82956
 Alpha  occ. eigenvalues --   -0.75965  -0.75665  -0.73380  -0.72367  -0.71573
 Alpha  occ. eigenvalues --   -0.70716  -0.70049  -0.67169  -0.65567  -0.59763
 Alpha  occ. eigenvalues --   -0.58925  -0.57947  -0.56533  -0.55945  -0.52691
 Alpha  occ. eigenvalues --   -0.51207  -0.50518  -0.49849  -0.49461  -0.47836
 Alpha  occ. eigenvalues --   -0.46289  -0.46219  -0.45781  -0.45279  -0.44566
 Alpha  occ. eigenvalues --   -0.43654  -0.43108  -0.41796  -0.41307  -0.40976
 Alpha  occ. eigenvalues --   -0.40664  -0.40429  -0.40072  -0.39725  -0.39363
 Alpha  occ. eigenvalues --   -0.38868  -0.37391  -0.37228  -0.36908  -0.36487
 Alpha  occ. eigenvalues --   -0.35770  -0.35029  -0.34706  -0.34225  -0.34050
 Alpha  occ. eigenvalues --   -0.33291  -0.33056  -0.32582  -0.30546  -0.25546
 Alpha  occ. eigenvalues --   -0.25107  -0.24299  -0.24039  -0.23608  -0.23181
 Alpha  occ. eigenvalues --   -0.22305
 Alpha virt. eigenvalues --    0.00683   0.00795   0.02429   0.03310   0.07768
 Alpha virt. eigenvalues --    0.08693   0.10037   0.10351   0.11106   0.12181
 Alpha virt. eigenvalues --    0.12497   0.13709   0.13844   0.14314   0.14884
 Alpha virt. eigenvalues --    0.15310   0.15645   0.15700   0.16299   0.16597
 Alpha virt. eigenvalues --    0.17112   0.17265   0.17433   0.17568   0.18074
 Alpha virt. eigenvalues --    0.18441   0.19046   0.19407   0.19647   0.19825
 Alpha virt. eigenvalues --    0.20230   0.20572   0.21737   0.21933   0.22678
 Alpha virt. eigenvalues --    0.22823   0.23759   0.23831   0.25583   0.26362
 Alpha virt. eigenvalues --    0.27943   0.28121   0.29477   0.31219   0.31335
 Alpha virt. eigenvalues --    0.31468   0.33596   0.34792   0.34974   0.36190
 Alpha virt. eigenvalues --    0.36716   0.39355   0.41671   0.47662   0.48179
 Alpha virt. eigenvalues --    0.49908   0.51023   0.51210   0.51482   0.52108
 Alpha virt. eigenvalues --    0.52300   0.53540   0.53976   0.54717   0.55380
 Alpha virt. eigenvalues --    0.55610   0.56092   0.57376   0.57870   0.58720
 Alpha virt. eigenvalues --    0.58998   0.59481   0.60150   0.60345   0.60685
 Alpha virt. eigenvalues --    0.61343   0.62177   0.62331   0.62493   0.62916
 Alpha virt. eigenvalues --    0.63470   0.64365   0.64931   0.65306   0.66240
 Alpha virt. eigenvalues --    0.66830   0.67045   0.67882   0.68281   0.68560
 Alpha virt. eigenvalues --    0.70378   0.71974   0.72632   0.73724   0.74981
 Alpha virt. eigenvalues --    0.75748   0.76311   0.77171   0.77960   0.78293
 Alpha virt. eigenvalues --    0.79129   0.79763   0.80976   0.81879   0.82305
 Alpha virt. eigenvalues --    0.82960   0.83050   0.83170   0.83491   0.83932
 Alpha virt. eigenvalues --    0.84676   0.84834   0.85648   0.86082   0.86510
 Alpha virt. eigenvalues --    0.86977   0.88200   0.89483   0.90112   0.90301
 Alpha virt. eigenvalues --    0.90676   0.91321   0.91778   0.92130   0.92652
 Alpha virt. eigenvalues --    0.93175   0.94374   0.94996   0.95452   0.96087
 Alpha virt. eigenvalues --    0.97723   0.97857   0.98480   0.99824   1.00141
 Alpha virt. eigenvalues --    1.01287   1.02577   1.03982   1.05151   1.07040
 Alpha virt. eigenvalues --    1.08165   1.09179   1.10673   1.10986   1.11861
 Alpha virt. eigenvalues --    1.14849   1.15512   1.16893   1.18144   1.19699
 Alpha virt. eigenvalues --    1.22000   1.22400   1.23276   1.26217   1.26976
 Alpha virt. eigenvalues --    1.27710   1.29189   1.29684   1.30128   1.31848
 Alpha virt. eigenvalues --    1.33694   1.34936   1.35426   1.36752   1.37295
 Alpha virt. eigenvalues --    1.38472   1.41414   1.41770   1.42051   1.42882
 Alpha virt. eigenvalues --    1.44390   1.44766   1.46036   1.46850   1.49085
 Alpha virt. eigenvalues --    1.51027   1.51823   1.54247   1.57018   1.59071
 Alpha virt. eigenvalues --    1.60725   1.62918   1.63513   1.65225   1.67165
 Alpha virt. eigenvalues --    1.68336   1.69961   1.71396   1.72221   1.72994
 Alpha virt. eigenvalues --    1.73441   1.74284   1.76573   1.77150   1.77956
 Alpha virt. eigenvalues --    1.79141   1.79752   1.80812   1.81431   1.81643
 Alpha virt. eigenvalues --    1.83032   1.83424   1.83933   1.85491   1.87016
 Alpha virt. eigenvalues --    1.87317   1.88018   1.89598   1.89978   1.90818
 Alpha virt. eigenvalues --    1.90910   1.91836   1.92267   1.93185   1.93683
 Alpha virt. eigenvalues --    1.94629   1.95485   1.95932   1.96194   1.96973
 Alpha virt. eigenvalues --    1.97524   1.98853   1.99510   1.99771   2.00580
 Alpha virt. eigenvalues --    2.01623   2.02292   2.02796   2.03325   2.03612
 Alpha virt. eigenvalues --    2.03973   2.04566   2.05366   2.05576   2.06622
 Alpha virt. eigenvalues --    2.07242   2.07323   2.08584   2.09795   2.10414
 Alpha virt. eigenvalues --    2.11117   2.11722   2.11892   2.12520   2.14543
 Alpha virt. eigenvalues --    2.16751   2.17171   2.18771   2.21295   2.22200
 Alpha virt. eigenvalues --    2.22657   2.23780   2.25013   2.27239   2.27930
 Alpha virt. eigenvalues --    2.28665   2.29960   2.30659   2.31909   2.32331
 Alpha virt. eigenvalues --    2.33256   2.34393   2.34603   2.35422   2.37155
 Alpha virt. eigenvalues --    2.37513   2.38132   2.38640   2.38780   2.40135
 Alpha virt. eigenvalues --    2.40270   2.42094   2.43050   2.43441   2.44621
 Alpha virt. eigenvalues --    2.45352   2.45518   2.46679   2.47717   2.49154
 Alpha virt. eigenvalues --    2.50367   2.50870   2.51088   2.52005   2.52573
 Alpha virt. eigenvalues --    2.53979   2.55022   2.55724   2.57542   2.58873
 Alpha virt. eigenvalues --    2.59443   2.60284   2.60709   2.62213   2.63899
 Alpha virt. eigenvalues --    2.64514   2.65568   2.66261   2.67391   2.67768
 Alpha virt. eigenvalues --    2.69504   2.69887   2.70215   2.71252   2.72328
 Alpha virt. eigenvalues --    2.72796   2.74690   2.75132   2.76610   2.77007
 Alpha virt. eigenvalues --    2.78577   2.79621   2.80762   2.81258   2.82455
 Alpha virt. eigenvalues --    2.83538   2.84837   2.85159   2.86780   2.87585
 Alpha virt. eigenvalues --    2.88597   2.89004   2.89732   2.91212   2.91445
 Alpha virt. eigenvalues --    2.93522   2.94775   2.95944   2.99354   3.02249
 Alpha virt. eigenvalues --    3.04545   3.04842   3.06734   3.09931   3.13252
 Alpha virt. eigenvalues --    3.13609   3.15154   3.15495   3.19171   3.20300
 Alpha virt. eigenvalues --    3.22044   3.24504   3.25915   3.26026   3.27813
 Alpha virt. eigenvalues --    3.28432   3.29838   3.31341   3.35022   3.38091
 Alpha virt. eigenvalues --    3.40804   3.41990   3.42706   3.43527   3.43812
 Alpha virt. eigenvalues --    3.44387   3.44727   3.47216   3.47606   3.48424
 Alpha virt. eigenvalues --    3.49647   3.50501   3.52033   3.52997   3.56081
 Alpha virt. eigenvalues --    3.90666   4.00661   4.08339   4.09211   4.14104
 Alpha virt. eigenvalues --    4.15800   4.16911   4.17390   4.27046   4.33596
 Alpha virt. eigenvalues --    4.38217   4.39571   4.42312   4.44632   4.47167
 Alpha virt. eigenvalues --    4.51952   4.54285   4.55933   4.58071   4.66219
 Alpha virt. eigenvalues --    4.72608   4.78382   4.84481   4.88223
          Condensed to atoms (all electrons):
              1          2          3          4          5          6
     1  C    5.184623   0.348915  -0.078713  -0.118138  -0.000617   0.000388
     2  C    0.348915   4.365964   0.564105   0.266720  -0.023689  -0.000307
     3  O   -0.078713   0.564105   8.104449  -0.105265   0.002114  -0.000048
     4  N   -0.118138   0.266720  -0.105265   7.098103   0.275177  -0.055633
     5  C   -0.000617  -0.023689   0.002114   0.275177   4.905529   0.367349
     6  C    0.000388  -0.000307  -0.000048  -0.055633   0.367349   4.868680
     7  O   -0.005894   0.002204   0.000000   0.002461  -0.041913   0.205463
     8  C    0.000280  -0.000061   0.000000  -0.000118   0.004167  -0.014908
     9  C   -0.000111   0.000004   0.000000  -0.000008  -0.000246   0.004374
    10  C   -0.000004   0.000000   0.000000   0.000000   0.000005  -0.000084
    11  C    0.000000   0.000000   0.000000   0.000000   0.000000   0.000002
    12  C    0.000000   0.000000   0.000000   0.000000   0.000000   0.000000
    13  C   -0.000001   0.000000   0.000000   0.000000   0.000000  -0.000005
    14  C   -0.000126   0.000002   0.000000   0.000000  -0.000027   0.000069
    15  C   -0.000040   0.000075   0.000000   0.005378  -0.073547   0.322677
    16  C    0.000028  -0.000060   0.000000   0.003443  -0.052092  -0.048973
    17  C   -0.000521   0.002427  -0.000046  -0.044431   0.347612  -0.082201
    18  C    0.008160  -0.035000   0.011865   0.266517  -0.029197  -0.001327
    19  C   -0.000169   0.000396   0.008046  -0.049574  -0.001612   0.000907
    20  O   -0.000033   0.002220  -0.000779   0.003054  -0.002050  -0.008192
    21  N   -0.000018  -0.000030  -0.001599   0.001541  -0.000086  -0.000050
    22  C   -0.000039  -0.000053  -0.010835   0.000485   0.000002   0.000001
    23  C    0.000000  -0.000031  -0.000051  -0.000091   0.000001   0.000002
    24  H    0.364081  -0.024135   0.005141   0.004671   0.000415  -0.000010
    25  H    0.356106  -0.019537   0.001434   0.001891  -0.002660   0.000239
    26  H    0.352595  -0.018838   0.001240   0.001563  -0.002975  -0.001137
    27  H    0.007775  -0.011132   0.000167  -0.039371   0.381715  -0.050922
    28  H   -0.000107  -0.000058  -0.000006  -0.006591  -0.039422   0.358357
    29  H    0.000029  -0.000026  -0.000001   0.000066   0.000169  -0.008757
    30  H   -0.000015   0.000009   0.000000   0.000006  -0.000209  -0.005615
    31  H    0.000000   0.000000   0.000000   0.000000   0.000000  -0.000010
    32  H    0.000000   0.000000   0.000000   0.000000   0.000000   0.000000
    33  H    0.000000   0.000000   0.000000   0.000000   0.000000   0.000000
    34  H    0.000000   0.000000   0.000000   0.000000   0.000000   0.000000
    35  H   -0.000022  -0.000001   0.000000  -0.000001  -0.000027  -0.000517
    36  H    0.000000  -0.000001   0.000000  -0.000095   0.002376  -0.025804
    37  H    0.000000  -0.000002   0.000000  -0.000120   0.003448  -0.026757
    38  H   -0.000009  -0.000001   0.000000   0.000030  -0.001897  -0.002440
    39  H    0.000000   0.000001   0.000000  -0.000107   0.003983   0.004067
    40  H    0.000001  -0.000252  -0.000002  -0.005199  -0.034612  -0.005853
    41  H    0.000012   0.000280  -0.000005   0.002636  -0.026357   0.005926
    42  H   -0.000028  -0.005355   0.002959  -0.036878   0.002154  -0.000186
    43  H   -0.000123   0.006128   0.001089  -0.037073  -0.001340  -0.002346
    44  H    0.000000  -0.000025   0.000189  -0.000062   0.000001   0.000000
    45  H    0.000000   0.000008   0.000054  -0.000001   0.000000   0.000000
    46  H    0.000214   0.000331   0.023108  -0.000955  -0.000017   0.000001
    47  H    0.000000  -0.000001  -0.000001  -0.000001   0.000000   0.000000
    48  H    0.000000  -0.000007   0.000001  -0.000008   0.000001   0.000000
    49  H    0.000000   0.000010   0.000031   0.000008   0.000000   0.000000
              7          8          9         10         11         12
     1  C   -0.005894   0.000280  -0.000111  -0.000004   0.000000   0.000000
     2  C    0.002204  -0.000061   0.000004   0.000000   0.000000   0.000000
     3  O    0.000000   0.000000   0.000000   0.000000   0.000000   0.000000
     4  N    0.002461  -0.000118  -0.000008   0.000000   0.000000   0.000000
     5  C   -0.041913   0.004167  -0.000246   0.000005   0.000000   0.000000
     6  C    0.205463  -0.014908   0.004374  -0.000084   0.000002   0.000000
     7  O    8.308834   0.207384  -0.037112   0.001338  -0.000077   0.000005
     8  C    0.207384   4.850835   0.349685  -0.049796   0.006135   0.000371
     9  C   -0.037112   0.349685   4.779380   0.530656  -0.021978  -0.034775
    10  C    0.001338  -0.049796   0.530656   4.901846   0.520817  -0.039732
    11  C   -0.000077   0.006135  -0.021978   0.520817   4.823305   0.549358
    12  C    0.000005   0.000371  -0.034775  -0.039732   0.549358   4.809530
    13  C    0.000339   0.006137  -0.025338  -0.046357  -0.029446   0.545047
    14  C    0.000622  -0.059490   0.531811  -0.035097  -0.046253  -0.037945
    15  C   -0.046759  -0.004758   0.000023  -0.000002   0.000000   0.000000
    16  C    0.001788   0.000140   0.000008   0.000000   0.000000   0.000000
    17  C    0.003105  -0.000192   0.000004   0.000000   0.000000   0.000000
    18  C   -0.000297  -0.000008   0.000000   0.000000   0.000000   0.000000
    19  C    0.000072   0.000117  -0.000002   0.000000   0.000000   0.000000
    20  O    0.000045  -0.002329   0.000042  -0.000010   0.000000   0.000000
    21  N    0.000000  -0.000001   0.000000   0.000000   0.000000   0.000000
    22  C    0.000000   0.000000   0.000000   0.000000   0.000000   0.000000
    23  C    0.000000   0.000000   0.000000   0.000000   0.000000   0.000000
    24  H    0.000032   0.000000   0.000000   0.000000   0.000000   0.000000
    25  H    0.000029  -0.000002   0.000001   0.000000   0.000000   0.000000
    26  H    0.014592  -0.000718   0.000543   0.000025  -0.000005  -0.000003
    27  H    0.001794  -0.000204  -0.000038   0.000002   0.000000   0.000000
    28  H   -0.031857  -0.007910   0.000260   0.000005   0.000000   0.000000
    29  H   -0.034003   0.369675  -0.036457  -0.003402   0.000097   0.000012
    30  H   -0.040789   0.344103  -0.026588  -0.000541  -0.000390   0.000045
    31  H    0.000051  -0.009231  -0.046613   0.366288  -0.043929   0.004875
    32  H    0.000000  -0.000176   0.003856  -0.037975   0.365341  -0.042246
    33  H    0.000000   0.000007   0.000686   0.004836  -0.041862   0.368070
    34  H   -0.000001  -0.000193   0.003762   0.000988   0.004571  -0.042460
    35  H    0.014086  -0.012408  -0.044443   0.006495   0.000316   0.004821
    36  H    0.000162   0.000310  -0.000249   0.000004   0.000000   0.000000
    37  H    0.003080   0.000087  -0.000009   0.000000   0.000000   0.000000
    38  H    0.000575  -0.000010   0.000000   0.000000   0.000000   0.000000
    39  H   -0.000056  -0.000001   0.000000   0.000000   0.000000   0.000000
    40  H   -0.000003   0.000003   0.000000   0.000000   0.000000   0.000000
    41  H   -0.000072   0.000002   0.000000   0.000000   0.000000   0.000000
    42  H   -0.000003   0.000000   0.000000   0.000000   0.000000   0.000000
    43  H    0.000013  -0.000006   0.000000   0.000000   0.000000   0.000000
    44  H    0.000000   0.000000   0.000000   0.000000   0.000000   0.000000
    45  H    0.000000   0.000000   0.000000   0.000000   0.000000   0.000000
    46  H    0.000000   0.000000   0.000000   0.000000   0.000000   0.000000
    47  H    0.000000   0.000000   0.000000   0.000000   0.000000   0.000000
    48  H    0.000000   0.000000   0.000000   0.000000   0.000000   0.000000
    49  H    0.000000   0.000000   0.000000   0.000000   0.000000   0.000000
             13         14         15         16         17         18
     1  C   -0.000001  -0.000126  -0.000040   0.000028  -0.000521   0.008160
     2  C    0.000000   0.000002   0.000075  -0.000060   0.002427  -0.035000
     3  O    0.000000   0.000000   0.000000   0.000000  -0.000046   0.011865
     4  N    0.000000   0.000000   0.005378   0.003443  -0.044431   0.266517
     5  C    0.000000  -0.000027  -0.073547  -0.052092   0.347612  -0.029197
     6  C   -0.000005   0.000069   0.322677  -0.048973  -0.082201  -0.001327
     7  O    0.000339   0.000622  -0.046759   0.001788   0.003105  -0.000297
     8  C    0.006137  -0.059490  -0.004758   0.000140  -0.000192  -0.000008
     9  C   -0.025338   0.531811   0.000023   0.000008   0.000004   0.000000
    10  C   -0.046357  -0.035097  -0.000002   0.000000   0.000000   0.000000
    11  C   -0.029446  -0.046253   0.000000   0.000000   0.000000   0.000000
    12  C    0.545047  -0.037945   0.000000   0.000000   0.000000   0.000000
    13  C    4.842524   0.512578  -0.000001   0.000000   0.000000   0.000000
    14  C    0.512578   4.898568  -0.000072  -0.000002   0.000000   0.000000
    15  C   -0.000001  -0.000072   5.077083   0.357592  -0.054319  -0.000332
    16  C    0.000000  -0.000002   0.357592   4.934722   0.350664   0.000234
    17  C    0.000000   0.000000  -0.054319   0.350664   5.036402  -0.010191
    18  C    0.000000   0.000000  -0.000332   0.000234  -0.010191   5.039853
    19  C    0.000000   0.000000   0.000048  -0.000003   0.000076   0.319308
    20  O    0.000000   0.000000   0.000302  -0.000002   0.000022  -0.085170
    21  N    0.000000   0.000000   0.000001   0.000000  -0.000001  -0.099448
    22  C    0.000000   0.000000   0.000000   0.000000   0.000001  -0.000777
    23  C    0.000000   0.000000   0.000000   0.000000   0.000000   0.005662
    24  H    0.000000   0.000000   0.000000   0.000000  -0.000006  -0.000174
    25  H    0.000000   0.000001   0.000001  -0.000002   0.000124  -0.000273
    26  H   -0.000007   0.000784   0.000122  -0.000013   0.000298  -0.000221
    27  H    0.000001  -0.000020  -0.002510   0.000393  -0.039722   0.004376
    28  H    0.000001   0.000083  -0.047768   0.004330   0.001380   0.000014
    29  H   -0.000104   0.006017  -0.001026  -0.000005  -0.000017   0.000027
[...]
    30  H    2.630938   2.076488   1.103961   2.147340   3.042353
    31  H    4.974651   3.978087   2.715734   2.153866   1.087290
    32  H    6.988415   5.733199   4.672463   3.409332   2.152459
    33  H    7.468647   6.059507   5.404862   3.895047   3.403431
    34  H    6.193418   4.828574   4.684124   3.407769   3.870728
    35  H    3.771989   2.501278   2.726720   2.146847   3.390799
    36  H    2.196231   2.548563   3.116457   4.129616   5.398251
    37  H    2.185602   3.283072   3.759545   5.124850   6.226632
    38  H    2.948391   3.514617   4.729835   5.601354   6.975185
    39  H    3.416204   4.452951   5.456094   6.604032   7.901062
    40  H    2.868383   4.201837   5.241491   6.562594   7.688867
    41  H    3.420830   4.376926   5.693272   6.751075   7.987085
    42  H    4.189139   5.115732   5.907779   7.083985   7.827805
    43  H    2.965614   4.167713   4.859797   6.230765   7.064570
    44  H    6.206721   7.071395   7.557400   8.712595   9.177090
    45  H    6.934757   7.513939   7.807447   8.761985   8.984895
    46  H    5.801530   6.374142   6.933174   7.872705   8.309132
    47  H    6.771048   7.317482   7.192816   8.198079   8.203279
    48  H    5.506971   5.875882   5.557077   6.519754   6.474061
    49  H    6.420343   6.650917   6.501437   7.259613   7.152229
                   11         12         13         14         15
    11  C    0.000000
    12  C    1.395570   0.000000
    13  C    2.412550   1.396183   0.000000
    14  C    2.788310   2.420497   1.394878   0.000000
    15  C    6.941270   7.118444   6.166472   4.797964   0.000000
    16  C    8.089201   8.106353   7.012184   5.701211   1.546255
    17  C    8.365479   8.493517   7.490078   6.171782   2.427110
    18  C    8.087003   8.633228   8.047549   6.788475   4.269036
    19  C    7.519943   8.282544   7.937902   6.751620   4.942347
    20  O    6.499339   7.347223   7.089373   5.914558   4.537830
    21  N    8.450013   9.298338   9.069657   7.952645   6.270682
    22  C    9.609257  10.367790  10.071371   8.972014   7.132022
    23  C    8.366100   9.378628   9.361450   8.341682   7.154850
    24  H    6.540582   6.611456   6.054469   5.370829   6.133305
    25  H    7.141311   7.039361   6.164109   5.297289   5.131992
    26  H    5.424048   5.462168   4.722677   3.808262   4.577302
    27  H    6.771252   6.776864   5.776638   4.571345   2.931114
    28  H    6.176572   6.714018   6.091866   4.729689   2.209047
    29  H    4.038815   4.821982   4.565081   3.406387   3.797761
    30  H    4.279821   4.778738   4.266369   3.022295   3.022967
    31  H    2.153652   3.401853   3.871391   3.396811   5.959681
    32  H    1.086350   2.156349   3.399389   3.874630   7.883527
    33  H    2.157005   1.086229   2.157753   3.405244   8.159396
    34  H    3.398622   2.155662   1.086583   2.151620   6.638928
    35  H    3.873018   3.406209   2.158741   1.084769   4.169386
    36  H    6.473337   6.535789   5.537107   4.230225   1.093673
    37  H    7.480225   7.799136   6.955324   5.585167   1.095876
    38  H    7.948355   7.780176   6.577065   5.363574   2.182679
    39  H    9.018474   9.033922   7.927569   6.630231   2.216967
    40  H    8.933302   9.198687   8.281875   6.925015   2.795330
    41  H    9.075635   9.101865   8.038504   6.790806   3.412564
    42  H    9.049059   9.567617   8.968033   7.740029   5.151203
    43  H    8.381709   8.926621   8.283231   6.951723   3.700765
    44  H   10.398339  11.130705  10.750220   9.579542   7.191226
    45  H   10.096287  10.922985  10.738229   9.706746   8.146560
    46  H    9.408866  10.051975   9.691262   8.634581   7.030486
    47  H    9.376555  10.422889  10.418562   9.380640   7.903287
    48  H    7.672973   8.751016   8.784552   7.762856   6.696084
    49  H    8.197638   9.213872   9.294940   8.392631   7.775800
                   16         17         18         19         20
    16  C    0.000000
    17  C    1.537927   0.000000
    18  C    4.400149   3.144227   0.000000
    19  C    5.474280   4.447364   1.541586   0.000000
    20  O    5.390876   4.667945   2.395485   1.232782   0.000000
    21  N    6.736760   5.607010   2.493274   1.363547   2.278567
    22  C    7.317878   5.991431   2.930950   2.490276   3.616301
    23  C    7.839607   6.851560   3.834674   2.421051   2.726700
    24  H    6.158627   5.288281   4.505589   4.792909   4.961073
    25  H    4.807441   3.982165   4.229485   5.026765   5.258960
    26  H    4.804990   4.267491   4.129834   4.464423   4.298542
    27  H    2.687141   2.128114   3.411079   4.365565   4.372166
    28  H    3.264862   3.040612   2.792280   2.935006   2.342615
    29  H    5.071332   5.058655   4.398386   3.867997   2.776432
    30  H    4.475958   5.000675   5.346263   5.161332   4.148755
    31  H    7.267008   7.381308   6.612371   5.818328   4.687475
    32  H    9.078793   9.302587   8.775891   8.056629   7.012564
    33  H    9.105449   9.507148   9.659634   9.295325   8.373170
    34  H    7.312428   7.864341   8.714399   8.745231   7.969301
    35  H    4.881872   5.457559   6.527674   6.734727   6.018568
    36  H    2.214291   3.368095   5.239194   5.782495   5.218077
    37  H    2.178381   2.912325   4.378853   4.937561   4.516679
    38  H    1.096763   2.166248   5.080379   6.162473   6.050198
    39  H    1.093777   2.209363   5.080950   6.193186   6.155784
    40  H    2.171574   1.096856   2.817089   4.125649   4.463386
    41  H    2.219615   1.094108   3.634481   5.077504   5.467327
    42  H    5.033029   3.611778   1.091190   2.202323   3.299108
    43  H    3.848990   2.734281   1.091954   2.119708   2.689640
    44  H    7.249222   5.894344   3.060299   2.976932   4.148623
    45  H    8.390165   7.075839   3.992990   3.337383   4.321859
    46  H    7.080709   5.684676   2.806243   2.712485   3.850975
    47  H    8.548205   7.533448   4.508136   3.238969   3.641670
    48  H    7.566475   6.763478   3.999117   2.482356   2.281191
    49  H    8.453775   7.439000   4.413387   3.030449   3.275245
                   21         22         23         24         25
    21  N    0.000000
    22  C    1.463702   0.000000
    23  C    1.459116   2.492428   0.000000
    24  H    5.481876   5.667245   6.305896   0.000000
    25  H    5.942989   6.093595   7.021516   1.776675   0.000000
    26  H    5.510796   6.057219   6.326638   1.787105   1.772974
    27  H    5.591111   6.074625   6.696470   3.482194   2.216130
    28  H    4.272877   5.336739   5.015419   5.129237   4.716354
    29  H    5.007230   6.270956   5.225234   5.085187   5.272298
    30  H    6.408693   7.641646   6.740691   6.184017   5.943828
    31  H    6.688728   7.976464   6.482640   6.183741   6.799280
    32  H    8.868196  10.049531   8.614581   7.233840   8.004098
    33  H   10.271411  11.315105  10.308045   7.350140   7.843184
    34  H    9.902376  10.829570  10.281991   6.439798   6.398911
    35  H    8.004693   8.936572   8.568889   5.243463   4.819034
    36  H    7.130642   8.067445   7.908776   6.544487   5.575081
    37  H    6.191617   7.110830   7.002937   6.930377   6.022487
    38  H    7.445327   7.986398   8.552954   6.002358   4.521255
    39  H    7.395928   7.931426   8.509081   7.200857   5.799695
    40  H    5.175650   5.534438   6.429876   5.919650   4.786957
    41  H    6.122720   6.271123   7.458417   5.292091   3.796615
    42  H    2.611105   2.458959   4.067176   4.785696   4.501743
    43  H    3.094154   3.639414   4.326640   5.388715   4.880695
    44  H    2.135407   1.096916   3.198844   6.389049   6.559780
    45  H    2.082112   1.091736   2.484620   6.280715   6.916894
    46  H    2.107732   1.091845   3.236468   4.813798   5.258045
    47  H    2.099982   2.722986   1.094824   7.300923   7.963593
    48  H    2.080799   3.398833   1.088393   6.485289   7.150294
    49  H    2.118877   2.831972   1.097575   6.045882   7.016478
                   26         27         28         29         30
    26  H    0.000000
    27  H    2.235995   0.000000
    28  H    3.804134   2.976815   0.000000
    29  H    3.715392   4.120897   2.292347   0.000000
    30  H    4.528387   4.339107   2.643974   1.773305   0.000000
    31  H    5.037668   6.120664   4.715400   2.425671   3.164743
    32  H    6.275122   7.727650   6.959704   4.722733   5.106724
    33  H    6.335377   7.737006   7.796286   5.888231   5.841214
    34  H    5.170538   6.125032   6.827771   5.513169   5.087559
    35  H    3.578644   3.911813   4.510444   3.729321   3.120591
    36  H    4.853360   3.462984   2.897190   3.875573   2.664092
    37  H    5.443320   3.841686   2.337862   4.079853   3.292659
    38  H    4.621383   2.586627   3.928963   5.405075   4.731334
    39  H    5.892432   3.742140   4.052709   5.954368   5.216858
    40  H    5.012708   3.050443   3.083583   5.314741   5.339580
    41  H    4.526659   2.420528   4.051257   5.964531   5.968545
    42  H    4.756237   4.036636   3.863518   5.458211   6.428152
    43  H    4.743522   3.593914   2.494852   4.491897   5.137335
    44  H    6.679563   6.346396   5.587971   6.843798   8.052104
    45  H    6.829093   7.062409   6.260462   6.960864   8.433540
    46  H    5.414980   5.546648   5.349555   6.261909   7.637171
    47  H    7.365571   7.594676   5.829393   6.187297   7.620520
    48  H    6.231124   6.584442   4.527172   4.509139   5.975038
    49  H    6.288717   7.002154   5.603441   5.488992   7.139582
                   31         32         33         34         35
    31  H    0.000000
    32  H    2.475666   0.000000
    33  H    4.299728   2.487325   0.000000
    34  H    4.957930   4.299532   2.486145   0.000000
    35  H    4.287942   4.959306   4.305188   2.484922   0.000000
    36  H    5.728573   7.446109   7.541470   5.951477   3.568544
    37  H    6.268086   8.352259   8.855837   7.502057   5.070379
    38  H    7.415761   8.986324   8.719558   6.729485   4.420113
    39  H    8.156125  10.002693  10.026678   8.193923   5.793571
    40  H    7.721897   9.814814  10.242345   8.740405   6.296825
    41  H    8.225322  10.030829  10.073373   8.308882   6.008463
    42  H    7.611190   9.722203  10.571076   9.591064   7.441372
    43  H    6.840089   9.104549   9.985430   8.945556   6.621942
    44  H    8.722766  10.887282  12.110427  11.483794   9.453422
    45  H    8.444186  10.438753  11.831082  11.527646   9.755512
    46  H    7.963056   9.900360  10.970814  10.378307   8.549650
    47  H    7.437322   9.588210  11.352519  11.347299   9.591982
    48  H    5.683496   7.900079   9.694478   9.750172   8.051593
    49  H    6.441938   8.366525  10.077915  10.211287   8.699930
                   36         37         38         39         40
    36  H    0.000000
    37  H    1.764175   0.000000
    38  H    2.423524   3.049672   0.000000
    39  H    2.767167   2.421548   1.762689   0.000000
    40  H    3.856253   2.867207   3.062839   2.472291   0.000000
    41  H    4.247526   3.952019   2.472808   2.698850   1.765579
    42  H    6.160106   5.251694   5.684778   5.620901   3.199033
    43  H    4.740415   3.601376   4.700623   4.369137   2.114681
    44  H    8.195726   7.069284   7.994807   7.729517   5.280422
    45  H    9.053797   8.107363   9.048920   9.012854   6.622387
    46  H    7.946640   7.170594   7.627425   7.766430   5.392254
    47  H    8.700920   7.640888   9.331042   9.127080   6.986431
    48  H    7.360876   6.487041   8.293438   8.233346   6.367596
    49  H    8.473382   7.742861   9.070424   9.207122   7.138514
                   41         42         43         44         45
    41  H    0.000000
    42  H    3.824843   0.000000
    43  H    3.401787   1.759941   0.000000
    44  H    6.125791   2.379395   3.517034   0.000000
    45  H    7.347322   3.542181   4.695802   1.765572   0.000000
    46  H    5.825785   2.213675   3.718374   1.794708   1.769240
    47  H    8.120395   4.581189   4.876599   3.172233   2.455104
    48  H    7.498895   4.485700   4.327812   4.018259   3.547863
    49  H    7.983665   4.599989   5.081129   3.750398   2.562139
                   46         47         48         49
    46  H    0.000000
    47  H    3.675306   0.000000
    48  H    4.077378   1.786654   0.000000
    49  H    3.338314   1.781720   1.775775   0.000000
 Stoichiometry    C18H26N2O3
 Framework group  C1[X(C18H26N2O3)]
 Deg. of freedom   141
 Full point group                 C1      NOp   1
 Largest Abelian subgroup         C1      NOp   1
 Largest concise Abelian subgroup C1      NOp   1
                         Standard orientation:                         
 ---------------------------------------------------------------------
 Center     Atomic      Atomic             Coordinates (Angstroms)
 Number     Number       Type             X           Y           Z
 ---------------------------------------------------------------------
      1          6           0       -0.263018    0.240601    2.750582
      2          6           0       -1.477233    0.011942    1.868706
      3          8           0       -2.258896   -0.912429    2.097045
      4          7           0       -1.707284    0.864127    0.812823
      5          6           0       -0.767231    1.903873    0.387972
      6          6           0        0.139923    1.517388   -0.807366
      7          8           0        1.307098    0.897527   -0.265214
      8          6           0        1.909264   -0.051786   -1.139470
      9          6           0        3.170889   -0.595162   -0.511149
     10          6           0        3.572090   -1.910494   -0.770302
     11          6           0        4.763518   -2.408551   -0.241624
     12          6           0        5.564020   -1.597931    0.564419
     13          6           0        5.165256   -0.287749    0.835968
     14          6           0        3.978781    0.211867    0.298990
     15          6           0        0.425576    2.848152   -1.557136
     16          6           0       -0.197871    3.964864   -0.688130
     17          6           0       -1.375327    3.268604    0.014751
     18          6           0       -2.794270    0.464438   -0.082292
     19          6           0       -2.602473   -0.952929   -0.657419
     20          8           0       -1.549110   -1.224952   -1.237231
     21          7           0       -3.657712   -1.814999   -0.606746
     22          6           0       -4.800090   -1.639726    0.291404
     23          6           0       -3.511596   -3.117952   -1.247046
     24          1           0       -0.262760   -0.544762    3.505646
     25          1           0       -0.303083    1.213341    3.252625
     26          1           0        0.659556    0.195608    2.165895
     27          1           0       -0.089322    2.080393    1.224384
     28          1           0       -0.379152    0.793986   -1.444433
     29          1           0        1.201288   -0.863977   -1.353756
     30          1           0        2.155799    0.429873   -2.101735
     31          1           0        2.944643   -2.550260   -1.386102
     32          1           0        5.060355   -3.432384   -0.450933
     33          1           0        6.488600   -1.985762    0.982310
     34          1           0        5.780439    0.347509    1.467363
     35          1           0        3.661348    1.226860    0.512882
     36          1           0        1.498989    2.982984   -1.717529
     37          1           0       -0.052827    2.831729   -2.542937
     38          1           0        0.524554    4.308233    0.062263
     39          1           0       -0.501764    4.841001   -1.268114
     40          1           0       -2.212435    3.154150   -0.684708
     41          1           0       -1.751480    3.807793    0.889312
     42          1           0       -3.751391    0.580145    0.428811
     43          1           0       -2.798340    1.138527   -0.941333
     44          1           0       -5.525991   -0.915021   -0.097304
     45          1           0       -5.311460   -2.599691    0.385507
     46          1           0       -4.458808   -1.335666    1.282969
     47          1           0       -4.436282   -3.379061   -1.771848
     48          1           0       -2.686600   -3.067377   -1.955158
     49          1           0       -3.292897   -3.899923   -0.508559
 ---------------------------------------------------------------------
 Rotational constants (GHZ):      0.3400792      0.1576760      0.1310856
 Standard basis: 6-31G(d,p) (6D, 7F)
 There are   475 symmetry adapted basis functions of A   symmetry.
 Integral buffers will be    131072 words long.
 Raffenetti 2 integral format.
 Two-electron integral symmetry is turned on.
   475 basis functions,   826 primitive gaussians,   475 cartesian basis functions
    86 alpha electrons       86 beta electrons
       nuclear repulsion energy      2023.8094776786 Hartrees.
 NAtoms=   49 NActive=   49 NUniq=   49 SFac= 1.00D+00 NAtFMM=   60 NAOKFM=F Big=F
 One-electron integrals computed using PRISM.
 NBasis=   475 RedAO= T  NBF=   475
 NBsUse=   475 1.00D-06 NBFU=   475
 Initial guess read from the read-write file.
 B after Tr=     0.000000    0.000000    0.000000
         Rot=    1.000000    0.000000    0.000000    0.000000 Ang=   0.00 deg.
 Initial guess orbital symmetries:
       Occupied  (A) (A) (A) (A) (A) (A) (A) (A) (A) (A) (A) (A)
                 (A) (A) (A) (A) (A) (A) (A) (A) (A) (A) (A) (A)
                 (A) (A) (A) (A) (A) (A) (A) (A) (A) (A) (A) (A)
                 (A) (A) (A) (A) (A) (A) (A) (A) (A) (A) (A) (A)
                 (A) (A) (A) (A) (A) (A) (A) (A) (A) (A) (A) (A)
                 (A) (A) (A) (A) (A) (A) (A) (A) (A) (A) (A) (A)
                 (A) (A) (A) (A) (A) (A) (A) (A) (A) (A) (A) (A)
                 (A) (A)
       Virtual   (A) (A) (A) (A) (A) (A) (A) (A) (A) (A) (A) (A)
                 (A) (A) (A) (A) (A) (A) (A) (A) (A) (A) (A) (A)
                 (A) (A) (A) (A) (A) (A) (A) (A) (A) (A) (A) (A)
                 (A) (A) (A) (A) (A) (A) (A) (A) (A) (A) (A) (A)
                 (A) (A) (A) (A) (A) (A) (A) (A) (A) (A) (A) (A)
                 (A) (A) (A) (A) (A) (A) (A) (A) (A) (A) (A) (A)
                 (A) (A) (A) (A) (A) (A) (A) (A) (A) (A) (A) (A)
                 (A) (A) (A) (A) (A) (A) (A) (A) (A) (A) (A) (A)
                 (A) (A) (A) (A) (A) (A) (A) (A) (A) (A) (A) (A)
                 (A) (A) (A) (A) (A) (A) (A) (A) (A) (A) (A) (A)
                 (A) (A) (A) (A) (A) (A) (A) (A) (A) (A) (A) (A)
                 (A) (A) (A) (A) (A) (A) (A) (A) (A) (A) (A) (A)
                 (A) (A) (A) (A) (A) (A) (A) (A) (A) (A) (A) (A)
                 (A) (A) (A) (A) (A) (A) (A) (A) (A) (A) (A) (A)
                 (A) (A) (A) (A) (A) (A) (A) (A) (A) (A) (A) (A)
                 (A) (A) (A) (A) (A) (A) (A) (A) (A) (A) (A) (A)
                 (A) (A) (A) (A) (A) (A) (A) (A) (A) (A) (A) (A)
                 (A) (A) (A) (A) (A) (A) (A) (A) (A) (A) (A) (A)
                 (A) (A) (A) (A) (A) (A) (A) (A) (A) (A) (A) (A)
                 (A) (A) (A) (A) (A) (A) (A) (A) (A) (A) (A) (A)
                 (A) (A) (A) (A) (A) (A) (A) (A) (A) (A) (A) (A)
                 (A) (A) (A) (A) (A) (A) (A) (A) (A) (A) (A) (A)
                 (A) (A) (A) (A) (A) (A) (A) (A) (A) (A) (A) (A)
                 (A) (A) (A) (A) (A) (A) (A) (A) (A) (A) (A) (A)
                 (A) (A) (A) (A) (A) (A) (A) (A) (A) (A) (A) (A)
                 (A) (A) (A) (A) (A) (A) (A) (A) (A) (A) (A) (A)
                 (A) (A) (A) (A) (A) (A) (A) (A) (A) (A) (A) (A)
                 (A) (A) (A) (A) (A) (A) (A) (A) (A) (A) (A) (A)
                 (A) (A) (A) (A) (A) (A) (A) (A) (A) (A) (A) (A)
                 (A) (A) (A) (A) (A) (A) (A) (A) (A) (A) (A) (A)
                 (A) (A) (A) (A) (A) (A) (A) (A) (A) (A) (A) (A)
                 (A) (A) (A) (A) (A) (A) (A) (A) (A) (A) (A) (A)
                 (A) (A) (A) (A) (A)
