 Entering Gaussian System, Link 0=/data/opt/apps/g09-C01/g09
 Initial command:
 /data/opt/apps/g09-C01/l1.exe /tmp/g09-tuu61186-1099773ede083eca8x/Gau-1099790.inp -scrdir=/tmp/g09-tuu61186-1099773ede083eca8x/
 Entering Link 1 = /data/opt/apps/g09-C01/l1.exe PID=   1099791.
  
 Copyright (c) 1988,1990,1992,1993,1995,1998,2003,2009,2011,
            Gaussian, Inc.  All Rights Reserved.
  
 This is part of the Gaussian(R) 09 program.  It is based on
 the Gaussian(R) 03 system (copyright 2003, Gaussian, Inc.),
 the Gaussian(R) 98 system (copyright 1998, Gaussian, Inc.),
 the Gaussian(R) 94 system (copyright 1995, Gaussian, Inc.),
 the Gaussian 92(TM) system (copyright 1992, Gaussian, Inc.),
 the Gaussian 90(TM) system (copyright 1990, Gaussian, Inc.),
 the Gaussian 88(TM) system (copyright 1988, Gaussian, Inc.),
 the Gaussian 86(TM) system (copyright 1986, Carnegie Mellon
 University), and the Gaussian 82(TM) system (copyright 1983,
 Carnegie Mellon University). Gaussian is a federally registered
 trademark of Gaussian, Inc.
  
 This software contains proprietary and confidential information,
 including trade secrets, belonging to Gaussian, Inc.
  
 This software is provided under written license and may be
 used, copied, transmitted, or stored only in accord with that
 written license.
  
 The following legend is applicable only to US Government
 contracts under FAR:
  
                    RESTRICTED RIGHTS LEGEND
  
 Use, reproduction and disclosure by the US Government is
 subject to restrictions as set forth in subparagraphs (a)
 and (c) of the Commercial Computer Software - Restricted
 Rights clause in FAR 52.227-19.
  
 Gaussian, Inc.
 340 Quinnipiac St., Bldg. 40, Wallingford CT 06492
  
  
 ---------------------------------------------------------------
 Warning -- This program may not be used in any manner that
 competes with the business of Gaussian, Inc. or will provide
 assistance to any competitor of Gaussian, Inc.  The licensee
 of this program is prohibited from giving any competitor of
 Gaussian, Inc. access to this program.  By using this program,
 the user acknowledges that Gaussian, Inc. is engaged in the
 business of creating and licensing software in the field of
 computational chemistry and represents and warrants to the
 licensee that it is not a competitor of Gaussian, Inc. and that
 it will not use this program in any manner prohibited above.
 ---------------------------------------------------------------
  

 Cite this work as:
 Gaussian 09, Revision C.01,
 M. J. Frisch, G. W. Trucks, H. B. Schlegel, G. E. Scuseria, 
 M. A. Robb, J. R. Cheeseman, G. Scalmani, V. Barone, B. Mennucci, 
 G. A. Petersson, H. Nakatsuji, M. Caricato, X. Li, H. P. Hratchian, 
 A. F. Izmaylov, J. Bloino, G. Zheng, J. L. Sonnenberg, M. Hada, 
 M. Ehara, K. Toyota, R. Fukuda, J. Hasegawa, M. Ishida, T. Nakajima, 
 Y. Honda, O. Kitao, H. Nakai, T. Vreven, J. A. Montgomery, Jr., 
 J. E. Peralta, F. Ogliaro, M. Bearpark, J. J. Heyd, E. Brothers, 
 K. N. Kudin, V. N. Staroverov, T. Keith, R. Kobayashi, J. Normand, 
 K. Raghavachari, A. Rendell, J. C. Burant, S. S. Iyengar, J. Tomasi, 
 M. Cossi, N. Rega, J. M. Millam, M. Klene, J. E. Knox, J. B. Cross, 
 V. Bakken, C. Adamo, J. Jaramillo, R. Gomperts, R. E. Stratmann, 
 O. Yazyev, A. J. Austin, R. Cammi, C. Pomelli, J. W. Ochterski, 
 R. L. Martin, K. Morokuma, V. G. Zakrzewski, G. A. Voth, 
 P. Salvador, J. J. Dannenberg, S. Dapprich, A. D. Daniels, 
 O. Farkas, J. B. Foresman, J. V. Ortiz, J. Cioslowski, 
 and D. J. Fox, Gaussian, Inc., Wallingford CT, 2010.
 
 ******************************************
 Gaussian 09:  EM64L-G09RevC.01 23-Sep-2011
                24-Apr-2026 
 ******************************************
 %nprocshared=8
 Will use up to    8 processors via shared memory.
 %mem=14GB
 -----------------------------------
 # opt=modredundant b3lyp/6-31g(d,p)
 -----------------------------------
 1/14=-1,18=120,19=15,26=3,38=1/1,3;
 2/9=110,12=2,17=6,18=5,40=1/2;
 3/5=1,6=6,7=101,11=2,16=1,25=1,30=1,71=1,74=-5/1,2,3;
 4//1;
 5/5=2,38=5/2;
 6/7=2,8=2,9=2,10=2,28=1/1;
 7//1,2,3,16;
 1/14=-1,18=20,19=15/3(2);
 2/9=110/2;
 99//99;
 2/9=110/2;
 3/5=1,6=6,7=101,11=2,16=1,25=1,30=1,71=1,74=-5/1,2,3;
 4/5=5,16=3/1;
 5/5=2,38=5/2;
 7//1,2,3,16;
 1/14=-1,18=20,19=15/3(-5);
 2/9=110/2;
 6/7=2,8=2,9=2,10=2,19=2,28=1/1;
 99/9=1/99;
 ---------------
 QM dihedral opt
 ---------------
 Charge =  0 Multiplicity = 1
 Symbolic Z-Matrix:
 C                     3.2473   -0.47623   0.80575 
 C                     1.96777  -0.62605  -0.00296 
 O                     1.61728  -1.72859  -0.42712 
 N                     1.23141   0.509    -0.2269 
 C                     0.0539    0.42574  -1.09489 
 C                    -1.24585   0.66958  -0.30951 
 O                    -1.5676    1.83408  -0.0593 
 N                    -1.99202  -0.40113   0.09514 
 C                    -1.66263  -1.80745  -0.1136 
 C                    -3.25048  -0.15008   0.78679 
 H                     3.7532   -1.44086   0.79749 
 H                     3.03071  -0.20014   1.84334 
 H                     3.9118    0.28771   0.39087 
 H                     0.1011    1.23426  -1.83112 
 H                     0.09268  -0.52896  -1.61384 
 H                    -0.60989  -1.94695  -0.35751 
 H                    -1.86102  -2.3574    0.81334 
 H                    -2.28793  -2.24722  -0.90261 
 H                    -3.21456  -0.54926   1.80799 
 H                    -3.42019   0.92424   0.82331 
 H                    -4.07678  -0.63873   0.25634 
 C                     1.62044   1.84464   0.2222 
 H                     2.12669   1.80017   1.18695 
 H                     2.28297   2.34043  -0.50112 
 H                     0.71527   2.44277   0.33758 
 
 The following ModRedundant input section has been read:
 D       2       4       5       6 F                                           
 D       4       5       6       8 S  37 10.000                                

 GradGradGradGradGradGradGradGradGradGradGradGradGradGradGradGradGradGrad
 Berny optimization.
 Initialization pass.
                           ----------------------------
                           !    Initial Parameters    !
                           ! (Angstroms and Degrees)  !
 --------------------------                            --------------------------
 ! Name  Definition              Value          Derivative Info.                !
 --------------------------------------------------------------------------------
 ! R1    R(1,2)                  1.5211         estimate D2E/DX2                !
 ! R2    R(1,11)                 1.0893         estimate D2E/DX2                !
 ! R3    R(1,12)                 1.0953         estimate D2E/DX2                !
 ! R4    R(1,13)                 1.0942         estimate D2E/DX2                !
 ! R5    R(2,3)                  1.2322         estimate D2E/DX2                !
 ! R6    R(2,4)                  1.3714         estimate D2E/DX2                !
 ! R7    R(4,5)                  1.4652         estimate D2E/DX2                !
 ! R8    R(4,22)                 1.4618         estimate D2E/DX2                !
 ! R9    R(5,6)                  1.5381         estimate D2E/DX2                !
 ! R10   R(5,14)                 1.0945         estimate D2E/DX2                !
 ! R11   R(5,15)                 1.0873         estimate D2E/DX2                !
 ! R12   R(6,7)                  1.2338         estimate D2E/DX2                !
 ! R13   R(6,8)                  1.3664         estimate D2E/DX2                !
 ! R14   R(8,9)                  1.4594         estimate D2E/DX2                !
 ! R15   R(8,10)                 1.4578         estimate D2E/DX2                !
 ! R16   R(9,16)                 1.0896         estimate D2E/DX2                !
 ! R17   R(9,17)                 1.0959         estimate D2E/DX2                !
 ! R18   R(9,18)                 1.0986         estimate D2E/DX2                !
 ! R19   R(10,19)                1.097          estimate D2E/DX2                !
 ! R20   R(10,20)                1.0883         estimate D2E/DX2                !
 ! R21   R(10,21)                1.0968         estimate D2E/DX2                !
 ! R22   R(22,23)                1.0904         estimate D2E/DX2                !
 ! R23   R(22,24)                1.0991         estimate D2E/DX2                !
 ! R24   R(22,25)                1.0911         estimate D2E/DX2                !
 ! A1    A(2,1,11)             107.4236         estimate D2E/DX2                !
 ! A2    A(2,1,12)             111.2312         estimate D2E/DX2                !
 ! A3    A(2,1,13)             112.2123         estimate D2E/DX2                !
 ! A4    A(11,1,12)            108.798          estimate D2E/DX2                !
 ! A5    A(11,1,13)            109.4724         estimate D2E/DX2                !
 ! A6    A(12,1,13)            107.6548         estimate D2E/DX2                !
 ! A7    A(1,2,3)              120.6918         estimate D2E/DX2                !
 ! A8    A(1,2,4)              117.1923         estimate D2E/DX2                !
 ! A9    A(3,2,4)              122.1151         estimate D2E/DX2                !
 ! A10   A(2,4,5)              118.7648         estimate D2E/DX2                !
 ! A11   A(2,4,22)             124.2739         estimate D2E/DX2                !
 ! A12   A(5,4,22)             116.6014         estimate D2E/DX2                !
 ! A13   A(4,5,6)              111.5688         estimate D2E/DX2                !
 ! A14   A(4,5,14)             108.7745         estimate D2E/DX2                !
 ! A15   A(4,5,15)             107.6961         estimate D2E/DX2                !
 ! A16   A(6,5,14)             105.2364         estimate D2E/DX2                !
 ! A17   A(6,5,15)             114.3966         estimate D2E/DX2                !
 ! A18   A(14,5,15)            109.0278         estimate D2E/DX2                !
 ! A19   A(5,6,7)              118.2667         estimate D2E/DX2                !
 ! A20   A(5,6,8)              119.2403         estimate D2E/DX2                !
 ! A21   A(7,6,8)              122.49           estimate D2E/DX2                !
 ! A22   A(6,8,9)              126.1224         estimate D2E/DX2                !
 ! A23   A(6,8,10)             118.489          estimate D2E/DX2                !
 ! A24   A(9,8,10)             115.3828         estimate D2E/DX2                !
 ! A25   A(8,9,16)             111.9297         estimate D2E/DX2                !
 ! A26   A(8,9,17)             108.768          estimate D2E/DX2                !
 ! A27   A(8,9,18)             111.1002         estimate D2E/DX2                !
 ! A28   A(16,9,17)            107.4572         estimate D2E/DX2                !
 ! A29   A(16,9,18)            109.7495         estimate D2E/DX2                !
 ! A30   A(17,9,18)            107.6703         estimate D2E/DX2                !
 ! A31   A(8,10,19)            110.5319         estimate D2E/DX2                !
 ! A32   A(8,10,20)            108.6965         estimate D2E/DX2                !
 ! A33   A(8,10,21)            110.1319         estimate D2E/DX2                !
 ! A34   A(19,10,20)           109.456          estimate D2E/DX2                !
 ! A35   A(19,10,21)           108.2259         estimate D2E/DX2                !
 ! A36   A(20,10,21)           109.7893         estimate D2E/DX2                !
 ! A37   A(4,22,23)            110.9838         estimate D2E/DX2                !
 ! A38   A(4,22,24)            111.7399         estimate D2E/DX2                !
 ! A39   A(4,22,25)            108.2155         estimate D2E/DX2                !
 ! A40   A(23,22,24)           108.7112         estimate D2E/DX2                !
 ! A41   A(23,22,25)           108.2987         estimate D2E/DX2                !
 ! A42   A(24,22,25)           108.8087         estimate D2E/DX2                !
 ! D1    D(11,1,2,3)             6.1689         estimate D2E/DX2                !
 ! D2    D(11,1,2,4)          -174.1596         estimate D2E/DX2                !
 ! D3    D(12,1,2,3)          -112.7941         estimate D2E/DX2                !
 ! D4    D(12,1,2,4)            66.8773         estimate D2E/DX2                !
 ! D5    D(13,1,2,3)           126.5362         estimate D2E/DX2                !
 ! D6    D(13,1,2,4)           -53.7924         estimate D2E/DX2                !
 ! D7    D(1,2,4,5)            174.9379         estimate D2E/DX2                !
 ! D8    D(1,2,4,22)             2.0708         estimate D2E/DX2                !
 ! D9    D(3,2,4,5)             -5.3957         estimate D2E/DX2                !
 ! D10   D(3,2,4,22)          -178.2628         estimate D2E/DX2                !
 ! D11   D(2,4,5,6)            113.47           Frozen                          !
 ! D12   D(2,4,5,14)          -130.8818         estimate D2E/DX2                !
 ! D13   D(2,4,5,15)           -12.8531         estimate D2E/DX2                !
 ! D14   D(22,4,5,6)           -73.1196         estimate D2E/DX2                !
 ! D15   D(22,4,5,14)           42.5286         estimate D2E/DX2                !
 ! D16   D(22,4,5,15)          160.5572         estimate D2E/DX2                !
 ! D17   D(2,4,22,23)          -35.3644         estimate D2E/DX2                !
 ! D18   D(2,4,22,24)           86.1579         estimate D2E/DX2                !
 ! D19   D(2,4,22,25)         -154.0647         estimate D2E/DX2                !
 ! D20   D(5,4,22,23)          151.6278         estimate D2E/DX2                !
 ! D21   D(5,4,22,24)          -86.8498         estimate D2E/DX2                !
 ! D22   D(5,4,22,25)           32.9275         estimate D2E/DX2                !
 ! D23   D(4,5,6,7)             80.2801         estimate D2E/DX2                !
 ! D24   D(4,5,6,8)            -99.1034         Scan                            !
 ! D25   D(14,5,6,7)           -37.5179         estimate D2E/DX2                !
 ! D26   D(14,5,6,8)           143.0987         estimate D2E/DX2                !
 ! D27   D(15,5,6,7)          -157.1594         estimate D2E/DX2                !
 ! D28   D(15,5,6,8)            23.4572         estimate D2E/DX2                !
 ! D29   D(5,6,8,9)              1.7367         estimate D2E/DX2                !
 ! D30   D(5,6,8,10)          -177.3379         estimate D2E/DX2                !
 ! D31   D(7,6,8,9)           -177.6195         estimate D2E/DX2                !
 ! D32   D(7,6,8,10)             3.3059         estimate D2E/DX2                !
 ! D33   D(6,8,9,16)            17.7207         estimate D2E/DX2                !
 ! D34   D(6,8,9,17)           136.299          estimate D2E/DX2                !
 ! D35   D(6,8,9,18)          -105.3583         estimate D2E/DX2                !
 ! D36   D(10,8,9,16)         -163.1795         estimate D2E/DX2                !
 ! D37   D(10,8,9,17)          -44.6012         estimate D2E/DX2                !
 ! D38   D(10,8,9,18)           73.7415         estimate D2E/DX2                !
 ! D39   D(6,8,10,19)         -117.1542         estimate D2E/DX2                !
 ! D40   D(6,8,10,20)            2.9937         estimate D2E/DX2                !
 ! D41   D(6,8,10,21)          123.3076         estimate D2E/DX2                !
 ! D42   D(9,8,10,19)           63.6732         estimate D2E/DX2                !
 ! D43   D(9,8,10,20)         -176.179          estimate D2E/DX2                !
 ! D44   D(9,8,10,21)          -55.8651         estimate D2E/DX2                !
 --------------------------------------------------------------------------------
 Trust Radius=3.00D-01 FncErr=1.00D-07 GrdErr=1.00D-06
 Number of optimizations in scan=  38
 Number of steps in this run=    120 maximum allowed number of steps=    150.
 GradGradGradGradGradGradGradGradGradGradGradGradGradGradGradGradGradGrad

                          Input orientation:                          
 ---------------------------------------------------------------------
 Center     Atomic      Atomic             Coordinates (Angstroms)
 Number     Number       Type             X           Y           Z
 ---------------------------------------------------------------------
      1          6           0        3.247301   -0.476225    0.805746
      2          6           0        1.967770   -0.626047   -0.002955
      3          8           0        1.617283   -1.728587   -0.427124
      4          7           0        1.231412    0.508999   -0.226902
      5          6           0        0.053902    0.425737   -1.094890
      6          6           0       -1.245850    0.669582   -0.309508
      7          8           0       -1.567602    1.834075   -0.059302
      8          7           0       -1.992019   -0.401131    0.095140
      9          6           0       -1.662626   -1.807447   -0.113603
     10          6           0       -3.250477   -0.150078    0.786794
     11          1           0        3.753202   -1.440858    0.797494
     12          1           0        3.030712   -0.200136    1.843338
     13          1           0        3.911804    0.287709    0.390867
     14          1           0        0.101099    1.234262   -1.831121
     15          1           0        0.092679   -0.528959   -1.613836
     16          1           0       -0.609888   -1.946950   -0.357510
     17          1           0       -1.861019   -2.357404    0.813337
     18          1           0       -2.287931   -2.247217   -0.902614
     19          1           0       -3.214556   -0.549255    1.807992
     20          1           0       -3.420187    0.924240    0.823309
     21          1           0       -4.076782   -0.638726    0.256342
     22          6           0        1.620437    1.844636    0.222204
     23          1           0        2.126691    1.800165    1.186953
     24          1           0        2.282975    2.340432   -0.501118
     25          1           0        0.715265    2.442765    0.337584
 ---------------------------------------------------------------------
                    Distance matrix (angstroms):
                    1          2          3          4          5
     1  C    0.000000
     2  C    1.521067   0.000000
     3  O    2.396943   1.232215   0.000000
     4  N    2.469987   1.371388   2.279425   0.000000
     5  C    3.824101   2.441611   2.744300   1.465219   0.000000
     6  C    4.769179   3.478503   3.736653   2.483835   1.538064
     7  O    5.410091   4.307462   4.792843   3.101354   2.384352
     8  N    5.287823   3.967384   3.880974   3.364900   2.507125
     9  C    5.169597   3.819388   3.295803   3.708668   2.982701
    10  C    6.505986   5.299090   5.259313   4.642121   3.845935
    11  H    1.089275   2.119529   2.478836   3.348246   4.555229
    12  H    1.095323   2.172566   3.080413   2.833063   4.229220
    13  H    1.094205   2.183876   3.162180   2.759549   4.136416
    14  H    4.447181   3.207398   3.612270   2.092160   1.094521
    15  H    3.976028   2.473930   2.274161   2.073079   1.087315
    16  H    4.288835   2.918016   2.238933   3.072317   2.571768
    17  H    5.443696   4.280602   3.746030   4.342982   3.879965
    18  H    6.057532   4.642044   3.968093   4.520961   3.558909
    19  H    6.539528   5.490167   5.452819   5.002732   4.478856
    20  H    6.813003   5.667114   5.828995   4.786726   3.999661
    21  H    7.346458   6.050124   5.837576   5.452313   4.474535
    22  C    2.893718   2.505117   3.631743   1.461835   2.490390
    23  H    2.565743   2.706962   3.913672   2.113675   3.375250
    24  H    3.251365   3.024486   4.123777   2.129584   2.997897
    25  H    3.892414   3.332018   4.335734   2.079544   2.560817
                    6          7          8          9         10
     6  C    0.000000
     7  O    1.233763   0.000000
     8  N    1.366358   2.280379   0.000000
     9  C    2.519475   3.643166   1.459383   0.000000
    10  C    2.427396   2.735838   1.457782   2.465534   0.000000
    11  H    5.538044   6.306365   5.880638   5.504151   7.121639
    12  H    4.866224   5.376109   5.322069   5.332962   6.369625
    13  H    5.218979   5.711199   5.951225   5.976490   7.186563
    14  H    2.109133   2.506727   3.281179   3.913130   4.472464
    15  H    2.220232   3.279792   2.698686   2.639380   4.133191
    16  H    2.693138   3.911815   2.122436   1.089591   3.392770
    17  H    3.286618   4.291397   2.088055   1.095915   2.608368
    18  H    3.153637   4.229302   2.119224   1.098609   2.859823
    19  H    3.137702   3.446666   2.109597   2.772014   1.097031
    20  H    2.464927   2.244743   2.080025   3.380671   1.088253
    21  H    3.169548   3.536999   2.104442   2.707567   1.096784
    22  C    3.143099   3.200461   4.255520   4.922294   5.293718
    23  H    3.858970   3.898987   4.795991   5.391218   5.733891
    24  H    3.909100   3.908778   5.113440   5.737842   6.203261
    25  H    2.721925   2.395726   3.933943   4.891036   4.759384
                   11         12         13         14         15
    11  H    0.000000
    12  H    1.776281   0.000000
    13  H    1.782819   1.767481   0.000000
    14  H    5.234858   4.913428   4.511615   0.000000
    15  H    4.477220   4.548870   4.389931   1.776579   0.000000
    16  H    4.541665   4.598811   5.098967   3.577309   2.020558
    17  H    5.688566   5.444606   6.364007   4.872692   3.612660
    18  H    6.327390   6.326038   6.821705   4.323226   3.020853
    19  H    7.096881   6.255118   7.313943   5.236186   4.758899
    20  H    7.553268   6.627124   7.372264   4.420585   4.515716
    21  H    7.889544   7.295710   8.043251   5.031926   4.570998
    22  C    3.959055   2.966150   2.775398   2.626231   3.367349
    23  H    3.647115   2.291135   2.471418   3.678592   4.172103
    24  H    4.259826   3.536958   2.768103   2.784439   3.777425
    25  H    4.952081   3.822763   3.855511   2.557530   3.609265
                   16         17         18         19         20
    16  H    0.000000
    17  H    1.762011   0.000000
    18  H    1.789728   1.771689   0.000000
    19  H    3.664321   2.467955   3.330029   0.000000
    20  H    4.187582   3.633221   3.784039   1.784117   0.000000
    21  H    3.756011   2.858969   2.670283   1.777373   1.787577
    22  C    4.436952   5.488817   5.769213   5.623397   5.159103
    23  H    4.890307   5.772937   6.343223   5.868082   5.627374
    24  H    5.174063   6.400792   6.488521   6.626094   6.023767
    25  H    4.637756   5.468565   5.705542   5.153424   4.432134
                   21         22         23         24         25
    21  H    0.000000
    22  C    6.215027   0.000000
    23  H    6.730327   1.090418   0.000000
    24  H    7.063684   1.099075   1.779297   0.000000
    25  H    5.697886   1.091058   1.768187   1.780901   0.000000
 Stoichiometry    C7H14N2O2
 Framework group  C1[X(C7H14N2O2)]
 Deg. of freedom    69
 Full point group                 C1      NOp   1
 Largest Abelian subgroup         C1      NOp   1
 Largest concise Abelian subgroup C1      NOp   1
                         Standard orientation:                         
 ---------------------------------------------------------------------
 Center     Atomic      Atomic             Coordinates (Angstroms)
 Number     Number       Type             X           Y           Z
 ---------------------------------------------------------------------
      1          6           0        3.247301   -0.476225    0.805746
      2          6           0        1.967770   -0.626047   -0.002955
      3          8           0        1.617283   -1.728587   -0.427124
      4          7           0        1.231412    0.508999   -0.226902
      5          6           0        0.053902    0.425737   -1.094890
      6          6           0       -1.245850    0.669582   -0.309508
      7          8           0       -1.567602    1.834075   -0.059302
      8          7           0       -1.992019   -0.401131    0.095140
      9          6           0       -1.662626   -1.807447   -0.113603
     10          6           0       -3.250477   -0.150078    0.786794
     11          1           0        3.753202   -1.440858    0.797494
     12          1           0        3.030712   -0.200136    1.843338
     13          1           0        3.911804    0.287709    0.390867
     14          1           0        0.101099    1.234262   -1.831121
     15          1           0        0.092679   -0.528959   -1.613836
     16          1           0       -0.609888   -1.946950   -0.357510
     17          1           0       -1.861019   -2.357404    0.813337
     18          1           0       -2.287931   -2.247217   -0.902614
     19          1           0       -3.214556   -0.549255    1.807992
     20          1           0       -3.420187    0.924240    0.823309
     21          1           0       -4.076782   -0.638726    0.256342
     22          6           0        1.620437    1.844636    0.222204
     23          1           0        2.126691    1.800165    1.186953
     24          1           0        2.282975    2.340432   -0.501118
     25          1           0        0.715265    2.442765    0.337584
 ---------------------------------------------------------------------
 Rotational constants (GHZ):      1.7438200      0.7301894      0.5768632
 Standard basis: 6-31G(d,p) (6D, 7F)
 There are   235 symmetry adapted basis functions of A   symmetry.
 Integral buffers will be    131072 words long.
 Raffenetti 2 integral format.
 Two-electron integral symmetry is turned on.
   235 basis functions,   406 primitive gaussians,   235 cartesian basis functions
    43 alpha electrons       43 beta electrons
       nuclear repulsion energy       663.0382668891 Hartrees.
 NAtoms=   25 NActive=   25 NUniq=   25 SFac= 1.00D+00 NAtFMM=   60 NAOKFM=F Big=F
 One-electron integrals computed using PRISM.
 NBasis=   235 RedAO= T  NBF=   235
 NBsUse=   235 1.00D-06 NBFU=   235
 Harris functional with IExCor=  402 diagonalized for initial guess.
 ExpMin= 1.61D-01 ExpMax= 5.48D+03 ExpMxC= 8.25D+02 IAcc=1 IRadAn=         1 AccDes= 0.00D+00
 HarFok:  IExCor=  402 AccDes= 0.00D+00 IRadAn=         1 IDoV= 1
 ScaDFX=  1.000000  1.000000  1.000000  1.000000
 FoFCou: FMM=F IPFlag=           0 FMFlag=      100000 FMFlg1=           0
         NFxFlg=           0 DoJE=T BraDBF=F KetDBF=T FulRan=T
         Omega=  0.000000  0.000000  1.000000  0.000000  0.000000 ICntrl=     500 IOpCl=  0
         NMat0=    1 NMatS0=    1 NMatT0=    0 NMatD0=    1 NMtDS0=    0 NMtDT0=    0
         I1Cent=           4 NGrid=           0.
 Petite list used in FoFCou.
 Initial guess orbital symmetries:
       Occupied  (A) (A) (A) (A) (A) (A) (A) (A) (A) (A) (A) (A)
                 (A) (A) (A) (A) (A) (A) (A) (A) (A) (A) (A) (A)
                 (A) (A) (A) (A) (A) (A) (A) (A) (A) (A) (A) (A)
                 (A) (A) (A) (A) (A) (A) (A)
       Virtual   (A) (A) (A) (A) (A) (A) (A) (A) (A) (A) (A) (A)
                 (A) (A) (A) (A) (A) (A) (A) (A) (A) (A) (A) (A)
                 (A) (A) (A) (A) (A) (A) (A) (A) (A) (A) (A) (A)
                 (A) (A) (A) (A) (A) (A) (A) (A) (A) (A) (A) (A)
                 (A) (A) (A) (A) (A) (A) (A) (A) (A) (A) (A) (A)
                 (A) (A) (A) (A) (A) (A) (A) (A) (A) (A) (A) (A)
                 (A) (A) (A) (A) (A) (A) (A) (A) (A) (A) (A) (A)
                 (A) (A) (A) (A) (A) (A) (A) (A) (A) (A) (A) (A)
                 (A) (A) (A) (A) (A) (A) (A) (A) (A) (A) (A) (A)
                 (A) (A) (A) (A) (A) (A) (A) (A) (A) (A) (A) (A)
                 (A) (A) (A) (A) (A) (A) (A) (A) (A) (A) (A) (A)
                 (A) (A) (A) (A) (A) (A) (A) (A) (A) (A) (A) (A)
                 (A) (A) (A) (A) (A) (A) (A) (A) (A) (A) (A) (A)
                 (A) (A) (A) (A) (A) (A) (A) (A) (A) (A) (A) (A)
                 (A) (A) (A) (A) (A) (A) (A) (A) (A) (A) (A) (A)
                 (A) (A) (A) (A) (A) (A) (A) (A) (A) (A) (A) (A)
 The electronic state of the initial guess is 1-A.
 Requested convergence on RMS density matrix=1.00D-08 within 128 cycles.
 Requested convergence on MAX density matrix=1.00D-06.
 Requested convergence on             energy=1.00D-06.
 No special actions if energy rises.
 Keep R1 ints in memory in canonical form, NReq=391461030.
 Integral accuracy reduced to 1.0D-05 until final iterations.
 Initial convergence to 1.0D-05 achieved.  Increase integral accuracy.
 SCF Done:  E(RB3LYP) =  -535.166053873     A.U. after   14 cycles
             Convg  =    0.7107D-08             -V/T =  2.0095

 **********************************************************************

            Population analysis using the SCF density.

 **********************************************************************

 Orbital symmetries:
       Occupied  (A) (A) (A) (A) (A) (A) (A) (A) (A) (A) (A) (A)
                 (A) (A) (A) (A) (A) (A) (A) (A) (A) (A) (A) (A)
                 (A) (A) (A) (A) (A) (A) (A) (A) (A) (A) (A) (A)
                 (A) (A) (A) (A) (A) (A) (A)
       Virtual   (A) (A) (A) (A) (A) (A) (A) (A) (A) (A) (A) (A)
                 (A) (A) (A) (A) (A) (A) (A) (A) (A) (A) (A) (A)
                 (A) (A) (A) (A) (A) (A) (A) (A) (A) (A) (A) (A)
                 (A) (A) (A) (A) (A) (A) (A) (A) (A) (A) (A) (A)
                 (A) (A) (A) (A) (A) (A) (A) (A) (A) (A) (A) (A)
                 (A) (A) (A) (A) (A) (A) (A) (A) (A) (A) (A) (A)
                 (A) (A) (A) (A) (A) (A) (A) (A) (A) (A) (A) (A)
                 (A) (A) (A) (A) (A) (A) (A) (A) (A) (A) (A) (A)
                 (A) (A) (A) (A) (A) (A) (A) (A) (A) (A) (A) (A)
                 (A) (A) (A) (A) (A) (A) (A) (A) (A) (A) (A) (A)
                 (A) (A) (A) (A) (A) (A) (A) (A) (A) (A) (A) (A)
                 (A) (A) (A) (A) (A) (A) (A) (A) (A) (A) (A) (A)
                 (A) (A) (A) (A) (A) (A) (A) (A) (A) (A) (A) (A)
                 (A) (A) (A) (A) (A) (A) (A) (A) (A) (A) (A) (A)
                 (A) (A) (A) (A) (A) (A) (A) (A) (A) (A) (A) (A)
                 (A) (A) (A) (A) (A) (A) (A) (A) (A) (A) (A) (A)
 The electronic state is 1-A.
 Alpha  occ. eigenvalues --  -19.11190 -19.10698 -14.36990 -14.36649 -10.28829
 Alpha  occ. eigenvalues --  -10.28257 -10.22432 -10.22010 -10.21311 -10.21085
 Alpha  occ. eigenvalues --  -10.19319  -1.03333  -1.02510  -0.93291  -0.92856
 Alpha  occ. eigenvalues --   -0.76343  -0.73018  -0.71607  -0.69939  -0.67421
 Alpha  occ. eigenvalues --   -0.55871  -0.53384  -0.51341  -0.49329  -0.47812
 Alpha  occ. eigenvalues --   -0.46520  -0.46408  -0.45427  -0.42413  -0.41001
 Alpha  occ. eigenvalues --   -0.40557  -0.40097  -0.39972  -0.39508  -0.39353
 Alpha  occ. eigenvalues --   -0.38238  -0.37064  -0.35978  -0.35344  -0.26155
 Alpha  occ. eigenvalues --   -0.25089  -0.23766  -0.22960
 Alpha virt. eigenvalues --    0.01542   0.03023   0.08685   0.09807   0.13014
 Alpha virt. eigenvalues --    0.13232   0.13629   0.14991   0.15200   0.15456
 Alpha virt. eigenvalues --    0.15929   0.16651   0.17395   0.17745   0.18330
 Alpha virt. eigenvalues --    0.18890   0.20889   0.21164   0.21962   0.23334
 Alpha virt. eigenvalues --    0.25717   0.26849   0.32378   0.34806   0.37364
 Alpha virt. eigenvalues --    0.41655   0.45945   0.49066   0.50193   0.51126
 Alpha virt. eigenvalues --    0.51908   0.52729   0.54460   0.55778   0.56653
 Alpha virt. eigenvalues --    0.60254   0.61459   0.62637   0.64340   0.66535
 Alpha virt. eigenvalues --    0.68520   0.68768   0.70505   0.71572   0.73495
 Alpha virt. eigenvalues --    0.74396   0.76156   0.78551   0.79705   0.80265
 Alpha virt. eigenvalues --    0.81798   0.82374   0.84569   0.85625   0.86045
 Alpha virt. eigenvalues --    0.86238   0.87228   0.87554   0.88679   0.89917
 Alpha virt. eigenvalues --    0.91597   0.92130   0.94625   0.95414   0.96165
 Alpha virt. eigenvalues --    0.98038   1.00117   1.03204   1.03442   1.05833
 Alpha virt. eigenvalues --    1.10226   1.11001   1.14305   1.20813   1.23529
 Alpha virt. eigenvalues --    1.27666   1.29110   1.30769   1.32031   1.34999
 Alpha virt. eigenvalues --    1.37780   1.39244   1.41373   1.42336   1.47124
 Alpha virt. eigenvalues --    1.49461   1.53920   1.59203   1.61103   1.62333
 Alpha virt. eigenvalues --    1.67662   1.69511   1.71589   1.74204   1.75454
 Alpha virt. eigenvalues --    1.77930   1.78699   1.81458   1.83418   1.83848
 Alpha virt. eigenvalues --    1.84639   1.86749   1.88436   1.89656   1.90995
 Alpha virt. eigenvalues --    1.94078   1.95994   1.96666   1.98499   2.01018
 Alpha virt. eigenvalues --    2.02123   2.03267   2.03552   2.04137   2.04409
 Alpha virt. eigenvalues --    2.05302   2.05717   2.08247   2.09022   2.09878
 Alpha virt. eigenvalues --    2.11041   2.12584   2.12729   2.13564   2.17886
 Alpha virt. eigenvalues --    2.20454   2.23692   2.26061   2.28118   2.29168
 Alpha virt. eigenvalues --    2.32094   2.32657   2.36182   2.39803   2.40107
 Alpha virt. eigenvalues --    2.43083   2.45842   2.48144   2.48855   2.54483
 Alpha virt. eigenvalues --    2.56344   2.57749   2.57783   2.59665   2.63501
 Alpha virt. eigenvalues --    2.65328   2.66426   2.67668   2.67973   2.71649
 Alpha virt. eigenvalues --    2.72344   2.73182   2.77640   2.81638   2.83519
 Alpha virt. eigenvalues --    2.85279   2.87410   2.88394   2.89515   2.89906
 Alpha virt. eigenvalues --    2.90896   2.97942   2.99461   3.08145   3.11297
 Alpha virt. eigenvalues --    3.12596   3.16020   3.18381   3.18545   3.25252
 Alpha virt. eigenvalues --    3.28240   3.35753   3.39915   3.41218   3.42745
 Alpha virt. eigenvalues --    3.43891   3.44212   3.45496   3.46132   3.49504
 Alpha virt. eigenvalues --    3.50647   3.99617   4.04218   4.06905   4.19297
 Alpha virt. eigenvalues --    4.27432   4.38274   4.49854   4.50868   4.56127
 Alpha virt. eigenvalues --    4.62626   4.72241
          Condensed to atoms (all electrons):
              1          2          3          4          5          6
     1  C    5.143000   0.349517  -0.077775  -0.119685   0.006066  -0.000145
     2  C    0.349517   4.377240   0.561533   0.273389  -0.024644  -0.000819
     3  O   -0.077775   0.561533   8.093413  -0.098801  -0.005054  -0.000294
     4  N   -0.119685   0.273389  -0.098801   7.037517   0.284780  -0.047006
     5  C    0.006066  -0.024644  -0.005054   0.284780   5.021504   0.333969
     6  C   -0.000145  -0.000819  -0.000294  -0.047006   0.333969   4.414826
     7  O   -0.000001  -0.000056  -0.000003  -0.001066  -0.082192   0.537997
     8  N    0.000007   0.000862   0.000145   0.000170  -0.096027   0.305046
     9  C   -0.000138  -0.000123  -0.013758   0.001597   0.000730  -0.025452
    10  C    0.000000  -0.000028   0.000000  -0.000157   0.005798  -0.031229
    11  H    0.368333  -0.022825   0.005306   0.004724  -0.000139   0.000002
    12  H    0.365540  -0.022109   0.000906   0.002272  -0.000117   0.000020
    13  H    0.361825  -0.021094   0.001845   0.000817  -0.000193  -0.000005
    14  H   -0.000112   0.003166   0.000726  -0.042579   0.369085  -0.038541
    15  H    0.000952  -0.005778   0.016304  -0.037975   0.353878  -0.024670
    16  H    0.000515   0.000170   0.033317  -0.004139   0.001427  -0.004128
    17  H    0.000002   0.000018   0.000041   0.000045  -0.000203   0.002012
    18  H    0.000000   0.000004   0.000169  -0.000031  -0.000097  -0.001201
    19  H    0.000000   0.000000   0.000000   0.000025  -0.000186   0.001579
    20  H    0.000000   0.000000   0.000000  -0.000023   0.001052  -0.003667
    21  H    0.000000   0.000000   0.000000  -0.000003  -0.000137   0.001122
    22  C   -0.001022  -0.026372   0.002777   0.280587  -0.041089  -0.003153
    23  H    0.004909  -0.007859   0.000047  -0.032513   0.003865   0.000239
    24  H    0.000162  -0.002069   0.000002  -0.046765  -0.000319  -0.000348
    25  H   -0.000141   0.002200  -0.000079  -0.030942  -0.008159   0.001758
              7          8          9         10         11         12
     1  C   -0.000001   0.000007  -0.000138   0.000000   0.368333   0.365540
     2  C   -0.000056   0.000862  -0.000123  -0.000028  -0.022825  -0.022109
     3  O   -0.000003   0.000145  -0.013758   0.000000   0.005306   0.000906
     4  N   -0.001066   0.000170   0.001597  -0.000157   0.004724   0.002272
     5  C   -0.082192  -0.096027   0.000730   0.005798  -0.000139  -0.000117
     6  C    0.537997   0.305046  -0.025452  -0.031229   0.000002   0.000020
     7  O    8.130986  -0.091092   0.002656  -0.012643   0.000000   0.000000
     8  N   -0.091092   6.969747   0.285099   0.290955   0.000000   0.000000
     9  C    0.002656   0.285099   4.873910  -0.049639   0.000001   0.000011
    10  C   -0.012643   0.290955  -0.049639   4.826615   0.000000   0.000000
    11  H    0.000000   0.000000   0.000001   0.000000   0.544413  -0.021517
    12  H    0.000000   0.000000   0.000011   0.000000  -0.021517   0.571194
    13  H    0.000000   0.000000   0.000001   0.000000  -0.022986  -0.029782
    14  H    0.002222   0.003819   0.000196  -0.000176   0.000004  -0.000007
    15  H    0.003263   0.001521  -0.001619  -0.000213  -0.000024  -0.000011
    16  H    0.000008  -0.026126   0.366988   0.003788  -0.000004  -0.000037
    17  H   -0.000048  -0.041741   0.384792  -0.004096   0.000000   0.000000
    18  H   -0.000029  -0.046112   0.377618  -0.000756   0.000000   0.000000
    19  H    0.000675  -0.043012  -0.003212   0.385635   0.000000   0.000000
    20  H    0.024345  -0.035694   0.004343   0.382998   0.000000   0.000000
    21  H    0.000738  -0.045978  -0.000180   0.385911   0.000000   0.000000
    22  C   -0.008523  -0.000157  -0.000007  -0.000001   0.000237  -0.003029
    23  H    0.000088   0.000015  -0.000001   0.000000   0.000056   0.002338
    24  H    0.000229  -0.000001   0.000001   0.000000   0.000008  -0.000077
    25  H    0.022110   0.000282  -0.000030   0.000020  -0.000008   0.000063
             13         14         15         16         17         18
     1  C    0.361825  -0.000112   0.000952   0.000515   0.000002   0.000000
     2  C   -0.021094   0.003166  -0.005778   0.000170   0.000018   0.000004
     3  O    0.001845   0.000726   0.016304   0.033317   0.000041   0.000169
     4  N    0.000817  -0.042579  -0.037975  -0.004139   0.000045  -0.000031
     5  C   -0.000193   0.369085   0.353878   0.001427  -0.000203  -0.000097
     6  C   -0.000005  -0.038541  -0.024670  -0.004128   0.002012  -0.001201
     7  O    0.000000   0.002222   0.003263   0.000008  -0.000048  -0.000029
     8  N    0.000000   0.003819   0.001521  -0.026126  -0.041741  -0.046112
     9  C    0.000001   0.000196  -0.001619   0.366988   0.384792   0.377618
    10  C    0.000000  -0.000176  -0.000213   0.003788  -0.004096  -0.000756
    11  H   -0.022986   0.000004  -0.000024  -0.000004   0.000000   0.000000
    12  H   -0.029782  -0.000007  -0.000011  -0.000037   0.000000   0.000000
    13  H    0.581769   0.000007  -0.000045  -0.000005   0.000000   0.000000
    14  H    0.000007   0.595555  -0.022554   0.000026  -0.000016   0.000055
    15  H   -0.000045  -0.022554   0.570519  -0.001793   0.000151   0.000488
    16  H   -0.000005   0.000026  -0.001793   0.506460  -0.022974  -0.025882
    17  H    0.000000  -0.000016   0.000151  -0.022974   0.609349  -0.046143
    18  H    0.000000   0.000055   0.000488  -0.025882  -0.046143   0.625855
    19  H    0.000000  -0.000001   0.000000   0.000031   0.007121  -0.001258
    20  H    0.000000  -0.000028  -0.000049  -0.000183   0.000011  -0.000079
    21  H    0.000000   0.000014  -0.000014  -0.000002  -0.002601   0.005462
    22  C    0.000552  -0.002857   0.004752  -0.000018   0.000002   0.000000
    23  H   -0.001834  -0.000034  -0.000231   0.000003   0.000000   0.000000
    24  H    0.001238   0.004166   0.000128  -0.000004   0.000000   0.000000
    25  H    0.000132  -0.001734   0.000179  -0.000002   0.000002  -0.000001
             19         20         21         22         23         24
     1  C    0.000000   0.000000   0.000000  -0.001022   0.004909   0.000162
     2  C    0.000000   0.000000   0.000000  -0.026372  -0.007859  -0.002069
     3  O    0.000000   0.000000   0.000000   0.002777   0.000047   0.000002
     4  N    0.000025  -0.000023  -0.000003   0.280587  -0.032513  -0.046765
     5  C   -0.000186   0.001052  -0.000137  -0.041089   0.003865  -0.000319
     6  C    0.001579  -0.003667   0.001122  -0.003153   0.000239  -0.000348
     7  O    0.000675   0.024345   0.000738  -0.008523   0.000088   0.000229
     8  N   -0.043012  -0.035694  -0.045978  -0.000157   0.000015  -0.000001
     9  C   -0.003212   0.004343  -0.000180  -0.000007  -0.000001   0.000001
    10  C    0.385635   0.382998   0.385911  -0.000001   0.000000   0.000000
    11  H    0.000000   0.000000   0.000000   0.000237   0.000056   0.000008
    12  H    0.000000   0.000000   0.000000  -0.003029   0.002338  -0.000077
    13  H    0.000000   0.000000   0.000000   0.000552  -0.001834   0.001238
    14  H   -0.000001  -0.000028   0.000014  -0.002857  -0.000034   0.004166
    15  H    0.000000  -0.000049  -0.000014   0.004752  -0.000231   0.000128
    16  H    0.000031  -0.000183  -0.000002  -0.000018   0.000003  -0.000004
    17  H    0.007121   0.000011  -0.002601   0.000002   0.000000   0.000000
    18  H   -0.001258  -0.000079   0.005462   0.000000   0.000000   0.000000
    19  H    0.609037  -0.026062  -0.043883   0.000000   0.000000   0.000000
    20  H   -0.026062   0.518003  -0.023728   0.000005   0.000000   0.000000
    21  H   -0.043883  -0.023728   0.611231   0.000000   0.000000   0.000000
    22  C    0.000000   0.000005   0.000000   4.848244   0.383169   0.378317
    23  H    0.000000   0.000000   0.000000   0.383169   0.588039  -0.038794
    24  H    0.000000   0.000000   0.000000   0.378317  -0.038794   0.621862
    25  H    0.000001  -0.000012  -0.000001   0.378271  -0.021054  -0.032506
             25
     1  C   -0.000141
     2  C    0.002200
     3  O   -0.000079
     4  N   -0.030942
     5  C   -0.008159
     6  C    0.001758
     7  O    0.022110
     8  N    0.000282
     9  C   -0.000030
    10  C    0.000020
    11  H   -0.000008
    12  H    0.000063
    13  H    0.000132
    14  H   -0.001734
    15  H    0.000179
    16  H   -0.000002
    17  H    0.000002
    18  H   -0.000001
    19  H    0.000001
    20  H   -0.000012
    21  H   -0.000001
    22  C    0.378271
    23  H   -0.021054
    24  H   -0.032506
    25  H    0.524746
 Mulliken atomic charges:
              1
     1  C   -0.401810
     2  C    0.565677
     3  O   -0.520768
     4  N   -0.424239
     5  C   -0.123598
     6  C    0.582086
     7  O   -0.529664
     8  N   -0.431729
     9  C   -0.203787
    10  C   -0.182781
    11  H    0.144421
    12  H    0.134343
    13  H    0.127761
    14  H    0.129600
    15  H    0.142843
    16  H    0.172563
    17  H    0.114275
    18  H    0.111938
    19  H    0.113510
    20  H    0.158766
    21  H    0.112050
    22  C   -0.190683
    23  H    0.119552
    24  H    0.114768
    25  H    0.164905
 Sum of Mulliken atomic charges =   0.00000
 Mulliken charges with hydrogens summed into heavy atoms:
              1
     1  C    0.004715
     2  C    0.565677
     3  O   -0.520768
     4  N   -0.424239
     5  C    0.148845
     6  C    0.582086
     7  O   -0.529664
     8  N   -0.431729
     9  C    0.194989
    10  C    0.201545
    22  C    0.208542
 Sum of Mulliken charges with hydrogens summed into heavy atoms =   0.00000
 Electronic spatial extent (au):  <R**2>=           2069.2673
 Charge=              0.0000 electrons
 Dipole moment (field-independent basis, Debye):
    X=              0.6220    Y=             -0.0616    Z=              0.7863  Tot=              1.0045
 Quadrupole moment (field-independent basis, Debye-Ang):
   XX=            -59.3426   YY=            -73.9927   ZZ=            -64.1143
   XY=             11.4659   XZ=              1.7656   YZ=             -1.7224
 Traceless Quadrupole moment (field-independent basis, Debye-Ang):
   XX=              6.4739   YY=             -8.1762   ZZ=              1.7022
   XY=             11.4659   XZ=              1.7656   YZ=             -1.7224
 Octapole moment (field-independent basis, Debye-Ang**2):
  XXX=              1.2844  YYY=             -0.3862  ZZZ=             -1.1636  XYY=              1.8932
  XXY=             -3.5591  XXZ=             10.4823  XZZ=             -0.8306  YZZ=              1.3175
  YYZ=              2.8702  XYZ=             -3.2559
 Hexadecapole moment (field-independent basis, Debye-Ang**3):
 XXXX=          -1672.8923 YYYY=           -707.4380 ZZZZ=           -218.0952 XXXY=              3.8414
 XXXZ=             -3.8058 YYYX=             34.6795 YYYZ=             -2.3626 ZZZX=             -0.6265
 ZZZY=             -0.4659 XXYY=           -423.1627 XXZZ=           -327.6411 YYZZ=           -147.3450
 XXYZ=             -4.3564 YYXZ=              4.3992 ZZXY=             -0.9802
 N-N= 6.630382668891D+02 E-N=-2.572726629048D+03  KE= 5.301486821420D+02
 Calling FoFJK, ICntrl=      2127 FMM=F ISym2X=0 I1Cent= 0 IOpClX= 0 NMat=1 NMatS=1 NMatT=0.
 ***** Axes restored to original set *****
 -------------------------------------------------------------------
 Center     Atomic                   Forces (Hartrees/Bohr)
 Number     Number              X              Y              Z
 -------------------------------------------------------------------
      1        6          -0.000007828   -0.000010796    0.000007466
      2        6           0.000002503   -0.000002572    0.000000074
      3        8          -0.000000220    0.000004417   -0.000009939
      4        7           0.000006076    0.000002882   -0.000005988
      5        6          -0.000006011    0.000004723    0.000005086
      6        6           0.000000001   -0.000014203   -0.000000013
      7        8           0.000000870    0.000009746    0.000009657
      8        7           0.000004721    0.000005260   -0.000008268
      9        6          -0.000002153   -0.000000603   -0.000015646
     10        6          -0.000005606   -0.000000659   -0.000005454
     11        1          -0.000003354   -0.000003302   -0.000003288
     12        1           0.000002390   -0.000002704    0.000001409
     13        1          -0.000000217    0.000003017    0.000000945
     14        1           0.000001681    0.000007488    0.000007430
     15        1           0.000001350    0.000007681   -0.000002848
     16        1          -0.000001768    0.000000245   -0.000006332
     17        1           0.000001736   -0.000002903   -0.000009503
     18        1          -0.000001854    0.000007607   -0.000007664
     19        1          -0.000002373   -0.000003637   -0.000003288
     20        1          -0.000000786   -0.000002433    0.000001890
     21        1           0.000002315   -0.000001871   -0.000005792
     22        6           0.000001342    0.000000495    0.000008531
     23        1           0.000000675   -0.000003560    0.000013993
     24        1           0.000005668   -0.000002594    0.000014885
     25        1           0.000000843   -0.000001724    0.000012661
 -------------------------------------------------------------------
 Cartesian Forces:  Max     0.000015646 RMS     0.000005941

 GradGradGradGradGradGradGradGradGradGradGradGradGradGradGradGradGradGrad
 Berny optimization.
 Internal  Forces:  Max     0.000014975 RMS     0.000003804
 Search for a local minimum.
 Step number   1 out of a maximum of  120 on scan point     1 out of    38
 All quantities printed in internal units (Hartrees-Bohrs-Radians)
 Mixed Optimization -- En-DIIS/RFO-DIIS
 Second derivative matrix not updated -- first step.
 ITU=  0
     Eigenvalues ---    0.00487   0.00745   0.00874   0.00906   0.00927
     Eigenvalues ---    0.01102   0.01132   0.01254   0.02070   0.02137
     Eigenvalues ---    0.02909   0.06460   0.06976   0.07155   0.07226
     Eigenvalues ---    0.07441   0.07502   0.07616   0.07625   0.07626
     Eigenvalues ---    0.09662   0.10678   0.16000   0.16000   0.16000
     Eigenvalues ---    0.16000   0.16000   0.16000   0.16000   0.16000
     Eigenvalues ---    0.16000   0.16000   0.16000   0.16000   0.22021
     Eigenvalues ---    0.24757   0.24886   0.24997   0.24998   0.24999
     Eigenvalues ---    0.25000   0.25000   0.25000   0.28691   0.30264
     Eigenvalues ---    0.33785   0.33836   0.34013   0.34040   0.34138
     Eigenvalues ---    0.34205   0.34295   0.34331   0.34691   0.34764
     Eigenvalues ---    0.34860   0.34897   0.35015   0.35125   0.36319
     Eigenvalues ---    0.36735   0.37042   0.37243   0.50711   0.51683
     Eigenvalues ---    0.89536   0.901691000.000001000.000001000.00000
     Eigenvalues --- 1000.000001000.000001000.000001000.000001000.00000
     Eigenvalues --- 1000.000001000.000001000.000001000.000001000.00000
     Eigenvalues --- 1000.000001000.000001000.000001000.000001000.00000
     Eigenvalues --- 1000.000001000.000001000.000001000.000001000.00000
     Eigenvalues --- 1000.000001000.000001000.000001000.000001000.00000
     Eigenvalues --- 1000.000001000.000001000.000001000.000001000.00000
     Eigenvalues --- 1000.000001000.000001000.000001000.000001000.00000
     Eigenvalues --- 1000.000001000.000001000.000001000.000001000.00000
 RFO step:  Lambda=-1.68548424D-08 EMin= 4.87277066D-03
 Linear search not attempted -- first point.
 Iteration  1 RMS(Cart)=  0.00017166 RMS(Int)=  0.00000001
 Iteration  2 RMS(Cart)=  0.00000002 RMS(Int)=  0.00000000
 Iteration  1 RMS(Cart)=  0.00000000 RMS(Int)=  0.00000000
 Variable       Old X    -DE/DX   Delta X   Delta X   Delta X     New X
                                 (Linear)    (Quad)   (Total)
    R1        2.87440   0.00000   0.00000  -0.00001  -0.00001   2.87439
    R2        2.05843   0.00000   0.00000  -0.00001  -0.00001   2.05843
    R3        2.06986   0.00000   0.00000   0.00000   0.00000   2.06986
    R4        2.06775   0.00001   0.00000   0.00002   0.00002   2.06776
    R5        2.32855   0.00000   0.00000   0.00000   0.00000   2.32855
    R6        2.59155  -0.00001   0.00000  -0.00001  -0.00001   2.59153
    R7        2.76886   0.00001   0.00000   0.00002   0.00002   2.76888
    R8        2.76247   0.00000   0.00000   0.00001   0.00001   2.76248
    R9        2.90652   0.00000   0.00000   0.00000   0.00000   2.90652
   R10        2.06835   0.00000   0.00000  -0.00001  -0.00001   2.06834
   R11        2.05473   0.00000   0.00000   0.00000   0.00000   2.05473
   R12        2.33147   0.00001   0.00000   0.00001   0.00001   2.33148
   R13        2.58204   0.00000   0.00000  -0.00001  -0.00001   2.58204
   R14        2.75783   0.00000   0.00000   0.00000   0.00000   2.75784
   R15        2.75481   0.00000   0.00000   0.00001   0.00001   2.75482
   R16        2.05903   0.00000   0.00000   0.00000   0.00000   2.05902
   R17        2.07098   0.00000   0.00000   0.00000   0.00000   2.07098
   R18        2.07607   0.00000   0.00000  -0.00001  -0.00001   2.07606
   R19        2.07309   0.00000   0.00000   0.00000   0.00000   2.07309
   R20        2.05650   0.00000   0.00000   0.00000   0.00000   2.05650
   R21        2.07262   0.00000   0.00000   0.00000   0.00000   2.07262
   R22        2.06059   0.00000   0.00000   0.00001   0.00001   2.06060
   R23        2.07695   0.00000   0.00000   0.00000   0.00000   2.07695
   R24        2.06180   0.00000   0.00000   0.00000   0.00000   2.06180
    A1        1.87490   0.00000   0.00000   0.00000   0.00000   1.87490
    A2        1.94135   0.00001   0.00000   0.00004   0.00004   1.94140
    A3        1.95847  -0.00001   0.00000  -0.00006  -0.00006   1.95842
    A4        1.89888   0.00000   0.00000   0.00003   0.00003   1.89891
    A5        1.91065   0.00000   0.00000   0.00002   0.00002   1.91067
    A6        1.87893   0.00000   0.00000  -0.00003  -0.00003   1.87890
    A7        2.10647   0.00001   0.00000   0.00004   0.00004   2.10651
    A8        2.04539  -0.00001   0.00000  -0.00005  -0.00005   2.04534
    A9        2.13131   0.00000   0.00000   0.00001   0.00001   2.13132
   A10        2.07284   0.00000   0.00000   0.00001   0.00001   2.07285
   A11        2.16899  -0.00001   0.00000  -0.00006  -0.00006   2.16893
   A12        2.03508   0.00001   0.00000   0.00006   0.00006   2.03514
   A13        1.94724   0.00000   0.00000   0.00002   0.00002   1.94727
   A14        1.89847   0.00000   0.00000  -0.00002  -0.00002   1.89846
   A15        1.87965   0.00000   0.00000   0.00001   0.00001   1.87966
   A16        1.83672   0.00000   0.00000  -0.00002  -0.00002   1.83670
   A17        1.99660   0.00000   0.00000   0.00001   0.00001   1.99661
   A18        1.90289   0.00000   0.00000   0.00000   0.00000   1.90289
   A19        2.06414  -0.00001   0.00000  -0.00003  -0.00003   2.06412
   A20        2.08114   0.00001   0.00000   0.00004   0.00004   2.08118
   A21        2.13785   0.00000   0.00000  -0.00001  -0.00001   2.13784
   A22        2.20125   0.00001   0.00000   0.00003   0.00003   2.20128
   A23        2.06802   0.00000   0.00000  -0.00001  -0.00001   2.06801
   A24        2.01381  -0.00001   0.00000  -0.00002  -0.00002   2.01379
   A25        1.95354   0.00000   0.00000   0.00003   0.00003   1.95357
   A26        1.89836   0.00000   0.00000  -0.00001  -0.00001   1.89835
   A27        1.93906   0.00000   0.00000  -0.00002  -0.00002   1.93904
   A28        1.87548   0.00000   0.00000  -0.00003  -0.00003   1.87545
   A29        1.91549   0.00000   0.00000   0.00003   0.00003   1.91552
   A30        1.87920   0.00000   0.00000   0.00000   0.00000   1.87920
   A31        1.92914   0.00000   0.00000   0.00002   0.00002   1.92916
   A32        1.89711   0.00000   0.00000   0.00001   0.00001   1.89712
   A33        1.92216   0.00000   0.00000  -0.00003  -0.00003   1.92214
   A34        1.91037   0.00000   0.00000  -0.00001  -0.00001   1.91035
   A35        1.88890   0.00000   0.00000   0.00000   0.00000   1.88890
   A36        1.91618   0.00000   0.00000   0.00001   0.00001   1.91620
   A37        1.93703   0.00000   0.00000   0.00000   0.00000   1.93704
   A38        1.95023   0.00000   0.00000  -0.00002  -0.00002   1.95021
   A39        1.88872   0.00000   0.00000   0.00001   0.00001   1.88873
   A40        1.89737   0.00000   0.00000  -0.00002  -0.00002   1.89734
   A41        1.89017   0.00000   0.00000  -0.00001  -0.00001   1.89015
   A42        1.89907   0.00000   0.00000   0.00004   0.00004   1.89911
    D1        0.10767   0.00000   0.00000  -0.00033  -0.00033   0.10734
    D2       -3.03966   0.00000   0.00000  -0.00022  -0.00022  -3.03988
    D3       -1.96863   0.00000   0.00000  -0.00040  -0.00040  -1.96902
    D4        1.16723   0.00000   0.00000  -0.00029  -0.00029   1.16694
    D5        2.20847   0.00000   0.00000  -0.00034  -0.00034   2.20813
    D6       -0.93885   0.00000   0.00000  -0.00023  -0.00023  -0.93909
    D7        3.05324   0.00000   0.00000   0.00000   0.00000   3.05325
    D8        0.03614   0.00000   0.00000  -0.00011  -0.00011   0.03603
    D9       -0.09417   0.00000   0.00000   0.00011   0.00011  -0.09406
   D10       -3.11127   0.00000   0.00000   0.00000   0.00000  -3.11128
   D11        1.98042   0.00000   0.00000   0.00000   0.00000   1.98042
   D12       -2.28432   0.00000   0.00000  -0.00002  -0.00002  -2.28434
   D13       -0.22433   0.00000   0.00000  -0.00003  -0.00003  -0.22436
   D14       -1.27618   0.00000   0.00000   0.00010   0.00010  -1.27608
   D15        0.74226   0.00000   0.00000   0.00008   0.00008   0.74234
   D16        2.80225   0.00000   0.00000   0.00007   0.00007   2.80232
   D17       -0.61723   0.00000   0.00000  -0.00016  -0.00016  -0.61739
   D18        1.50374   0.00000   0.00000  -0.00020  -0.00020   1.50354
   D19       -2.68894   0.00000   0.00000  -0.00016  -0.00016  -2.68909
   D20        2.64640   0.00000   0.00000  -0.00028  -0.00028   2.64613
   D21       -1.51582  -0.00001   0.00000  -0.00032  -0.00032  -1.51613
   D22        0.57469   0.00000   0.00000  -0.00027  -0.00027   0.57443
   D23        1.40115   0.00000   0.00000  -0.00007  -0.00007   1.40108
   D24       -1.72968   0.00000   0.00000   0.00000   0.00000  -1.72968
   D25       -0.65481   0.00000   0.00000  -0.00005  -0.00005  -0.65486
   D26        2.49754   0.00000   0.00000   0.00002   0.00002   2.49756
   D27       -2.74295   0.00000   0.00000  -0.00004  -0.00004  -2.74298
   D28        0.40941   0.00000   0.00000   0.00004   0.00004   0.40944
   D29        0.03031   0.00000   0.00000   0.00001   0.00001   0.03032
   D30       -3.09513   0.00000   0.00000   0.00003   0.00003  -3.09510
   D31       -3.10004   0.00000   0.00000   0.00008   0.00008  -3.09996
   D32        0.05770   0.00000   0.00000   0.00011   0.00011   0.05781
   D33        0.30929   0.00000   0.00000  -0.00013  -0.00013   0.30916
   D34        2.37887   0.00000   0.00000  -0.00015  -0.00015   2.37871
   D35       -1.83885   0.00000   0.00000  -0.00017  -0.00017  -1.83902
   D36       -2.84802   0.00000   0.00000  -0.00016  -0.00016  -2.84818
   D37       -0.77844   0.00000   0.00000  -0.00018  -0.00018  -0.77862
   D38        1.28703   0.00000   0.00000  -0.00019  -0.00019   1.28684
   D39       -2.04473   0.00000   0.00000   0.00015   0.00015  -2.04457
   D40        0.05225   0.00000   0.00000   0.00015   0.00015   0.05240
   D41        2.15212   0.00000   0.00000   0.00016   0.00016   2.15228
   D42        1.11131   0.00000   0.00000   0.00018   0.00018   1.11148
   D43       -3.07490   0.00000   0.00000   0.00018   0.00018  -3.07473
   D44       -0.97503   0.00000   0.00000   0.00018   0.00018  -0.97484
         Item               Value     Threshold  Converged?
 Maximum Force            0.000015     0.000450     YES
 RMS     Force            0.000004     0.000300     YES
 Maximum Displacement     0.000691     0.001800     YES
 RMS     Displacement     0.000172     0.001200     YES
 Predicted change in Energy=-8.427433D-09
 Optimization completed.
    -- Stationary point found.
                           ----------------------------
                           !   Optimized Parameters   !
                           ! (Angstroms and Degrees)  !
 --------------------------                            --------------------------
 ! Name  Definition              Value          Derivative Info.                !
 --------------------------------------------------------------------------------
 ! R1    R(1,2)                  1.5211         -DE/DX =    0.0                 !
 ! R2    R(1,11)                 1.0893         -DE/DX =    0.0                 !
 ! R3    R(1,12)                 1.0953         -DE/DX =    0.0                 !
 ! R4    R(1,13)                 1.0942         -DE/DX =    0.0                 !
 ! R5    R(2,3)                  1.2322         -DE/DX =    0.0                 !
 ! R6    R(2,4)                  1.3714         -DE/DX =    0.0                 !
 ! R7    R(4,5)                  1.4652         -DE/DX =    0.0                 !
 ! R8    R(4,22)                 1.4618         -DE/DX =    0.0                 !
 ! R9    R(5,6)                  1.5381         -DE/DX =    0.0                 !
 ! R10   R(5,14)                 1.0945         -DE/DX =    0.0                 !
 ! R11   R(5,15)                 1.0873         -DE/DX =    0.0                 !
 ! R12   R(6,7)                  1.2338         -DE/DX =    0.0                 !
 ! R13   R(6,8)                  1.3664         -DE/DX =    0.0                 !
 ! R14   R(8,9)                  1.4594         -DE/DX =    0.0                 !
 ! R15   R(8,10)                 1.4578         -DE/DX =    0.0                 !
 ! R16   R(9,16)                 1.0896         -DE/DX =    0.0                 !
 ! R17   R(9,17)                 1.0959         -DE/DX =    0.0                 !
 ! R18   R(9,18)                 1.0986         -DE/DX =    0.0                 !
 ! R19   R(10,19)                1.097          -DE/DX =    0.0                 !
 ! R20   R(10,20)                1.0883         -DE/DX =    0.0                 !
 ! R21   R(10,21)                1.0968         -DE/DX =    0.0                 !
 ! R22   R(22,23)                1.0904         -DE/DX =    0.0                 !
 ! R23   R(22,24)                1.0991         -DE/DX =    0.0                 !
 ! R24   R(22,25)                1.0911         -DE/DX =    0.0                 !
 ! A1    A(2,1,11)             107.4236         -DE/DX =    0.0                 !
 ! A2    A(2,1,12)             111.2312         -DE/DX =    0.0                 !
 ! A3    A(2,1,13)             112.2123         -DE/DX =    0.0                 !
 ! A4    A(11,1,12)            108.798          -DE/DX =    0.0                 !
 ! A5    A(11,1,13)            109.4724         -DE/DX =    0.0                 !
 ! A6    A(12,1,13)            107.6548         -DE/DX =    0.0                 !
 ! A7    A(1,2,3)              120.6918         -DE/DX =    0.0                 !
 ! A8    A(1,2,4)              117.1923         -DE/DX =    0.0                 !
 ! A9    A(3,2,4)              122.1151         -DE/DX =    0.0                 !
 ! A10   A(2,4,5)              118.7648         -DE/DX =    0.0                 !
 ! A11   A(2,4,22)             124.2739         -DE/DX =    0.0                 !
 ! A12   A(5,4,22)             116.6014         -DE/DX =    0.0                 !
 ! A13   A(4,5,6)              111.5688         -DE/DX =    0.0                 !
 ! A14   A(4,5,14)             108.7745         -DE/DX =    0.0                 !
 ! A15   A(4,5,15)             107.6961         -DE/DX =    0.0                 !
 ! A16   A(6,5,14)             105.2364         -DE/DX =    0.0                 !
 ! A17   A(6,5,15)             114.3966         -DE/DX =    0.0                 !
 ! A18   A(14,5,15)            109.0278         -DE/DX =    0.0                 !
 ! A19   A(5,6,7)              118.2667         -DE/DX =    0.0                 !
 ! A20   A(5,6,8)              119.2403         -DE/DX =    0.0                 !
 ! A21   A(7,6,8)              122.49           -DE/DX =    0.0                 !
 ! A22   A(6,8,9)              126.1224         -DE/DX =    0.0                 !
 ! A23   A(6,8,10)             118.489          -DE/DX =    0.0                 !
 ! A24   A(9,8,10)             115.3828         -DE/DX =    0.0                 !
 ! A25   A(8,9,16)             111.9297         -DE/DX =    0.0                 !
 ! A26   A(8,9,17)             108.768          -DE/DX =    0.0                 !
 ! A27   A(8,9,18)             111.1002         -DE/DX =    0.0                 !
 ! A28   A(16,9,17)            107.4572         -DE/DX =    0.0                 !
 ! A29   A(16,9,18)            109.7495         -DE/DX =    0.0                 !
 ! A30   A(17,9,18)            107.6703         -DE/DX =    0.0                 !
 ! A31   A(8,10,19)            110.5319         -DE/DX =    0.0                 !
 ! A32   A(8,10,20)            108.6965         -DE/DX =    0.0                 !
 ! A33   A(8,10,21)            110.1319         -DE/DX =    0.0                 !
 ! A34   A(19,10,20)           109.456          -DE/DX =    0.0                 !
 ! A35   A(19,10,21)           108.2259         -DE/DX =    0.0                 !
 ! A36   A(20,10,21)           109.7893         -DE/DX =    0.0                 !
 ! A37   A(4,22,23)            110.9838         -DE/DX =    0.0                 !
 ! A38   A(4,22,24)            111.7399         -DE/DX =    0.0                 !
 ! A39   A(4,22,25)            108.2155         -DE/DX =    0.0                 !
 ! A40   A(23,22,24)           108.7112         -DE/DX =    0.0                 !
 ! A41   A(23,22,25)           108.2987         -DE/DX =    0.0                 !
 ! A42   A(24,22,25)           108.8087         -DE/DX =    0.0                 !
 ! D1    D(11,1,2,3)             6.1689         -DE/DX =    0.0                 !
 ! D2    D(11,1,2,4)          -174.1596         -DE/DX =    0.0                 !
 ! D3    D(12,1,2,3)          -112.7941         -DE/DX =    0.0                 !
 ! D4    D(12,1,2,4)            66.8773         -DE/DX =    0.0                 !
 ! D5    D(13,1,2,3)           126.5362         -DE/DX =    0.0                 !
 ! D6    D(13,1,2,4)           -53.7924         -DE/DX =    0.0                 !
 ! D7    D(1,2,4,5)            174.9379         -DE/DX =    0.0                 !
 ! D8    D(1,2,4,22)             2.0708         -DE/DX =    0.0                 !
 ! D9    D(3,2,4,5)             -5.3957         -DE/DX =    0.0                 !
 ! D10   D(3,2,4,22)          -178.2628         -DE/DX =    0.0                 !
 ! D11   D(2,4,5,6)            113.47           -DE/DX =    0.0                 !
 ! D12   D(2,4,5,14)          -130.8818         -DE/DX =    0.0                 !
 ! D13   D(2,4,5,15)           -12.8531         -DE/DX =    0.0                 !
 ! D14   D(22,4,5,6)           -73.1196         -DE/DX =    0.0                 !
 ! D15   D(22,4,5,14)           42.5286         -DE/DX =    0.0                 !
 ! D16   D(22,4,5,15)          160.5572         -DE/DX =    0.0                 !
 ! D17   D(2,4,22,23)          -35.3644         -DE/DX =    0.0                 !
 ! D18   D(2,4,22,24)           86.1579         -DE/DX =    0.0                 !
 ! D19   D(2,4,22,25)         -154.0647         -DE/DX =    0.0                 !
 ! D20   D(5,4,22,23)          151.6278         -DE/DX =    0.0                 !
 ! D21   D(5,4,22,24)          -86.8498         -DE/DX =    0.0                 !
 ! D22   D(5,4,22,25)           32.9275         -DE/DX =    0.0                 !
 ! D23   D(4,5,6,7)             80.2801         -DE/DX =    0.0                 !
 ! D24   D(4,5,6,8)            -99.1034         -DE/DX =    0.0                 !
 ! D25   D(14,5,6,7)           -37.5179         -DE/DX =    0.0                 !
 ! D26   D(14,5,6,8)           143.0987         -DE/DX =    0.0                 !
 ! D27   D(15,5,6,7)          -157.1594         -DE/DX =    0.0                 !
 ! D28   D(15,5,6,8)            23.4572         -DE/DX =    0.0                 !
 ! D29   D(5,6,8,9)              1.7367         -DE/DX =    0.0                 !
 ! D30   D(5,6,8,10)          -177.3379         -DE/DX =    0.0                 !
 ! D31   D(7,6,8,9)           -177.6195         -DE/DX =    0.0                 !
 ! D32   D(7,6,8,10)             3.3059         -DE/DX =    0.0                 !
 ! D33   D(6,8,9,16)            17.7207         -DE/DX =    0.0                 !
 ! D34   D(6,8,9,17)           136.299          -DE/DX =    0.0                 !
 ! D35   D(6,8,9,18)          -105.3583         -DE/DX =    0.0                 !
 ! D36   D(10,8,9,16)         -163.1795         -DE/DX =    0.0                 !
 ! D37   D(10,8,9,17)          -44.6012         -DE/DX =    0.0                 !
 ! D38   D(10,8,9,18)           73.7415         -DE/DX =    0.0                 !
 ! D39   D(6,8,10,19)         -117.1542         -DE/DX =    0.0                 !
 ! D40   D(6,8,10,20)            2.9937         -DE/DX =    0.0                 !
 ! D41   D(6,8,10,21)          123.3076         -DE/DX =    0.0                 !
 ! D42   D(9,8,10,19)           63.6732         -DE/DX =    0.0                 !
 ! D43   D(9,8,10,20)         -176.179          -DE/DX =    0.0                 !
 ! D44   D(9,8,10,21)          -55.8651         -DE/DX =    0.0                 !
 --------------------------------------------------------------------------------
 Iteration  1 RMS(Cart)=  0.04775478 RMS(Int)=  0.01274530
 Iteration  2 RMS(Cart)=  0.00097288 RMS(Int)=  0.01273656
 Iteration  3 RMS(Cart)=  0.00000480 RMS(Int)=  0.01273656
 Iteration  4 RMS(Cart)=  0.00000012 RMS(Int)=  0.01273656
 Iteration  1 RMS(Cart)=  0.02693905 RMS(Int)=  0.00770637
 Iteration  2 RMS(Cart)=  0.01577783 RMS(Int)=  0.00853105
 Iteration  3 RMS(Cart)=  0.00961655 RMS(Int)=  0.00972755
 Iteration  4 RMS(Cart)=  0.00608444 RMS(Int)=  0.01067742
 Iteration  5 RMS(Cart)=  0.00396858 RMS(Int)=  0.01135580
 Iteration  6 RMS(Cart)=  0.00264619 RMS(Int)=  0.01182698
 Iteration  7 RMS(Cart)=  0.00179050 RMS(Int)=  0.01215167
 Iteration  8 RMS(Cart)=  0.00122273 RMS(Int)=  0.01237500
 Iteration  9 RMS(Cart)=  0.00083969 RMS(Int)=  0.01252865
 Iteration 10 RMS(Cart)=  0.00057858 RMS(Int)=  0.01263443
 Iteration 11 RMS(Cart)=  0.00039946 RMS(Int)=  0.01270733
 Iteration 12 RMS(Cart)=  0.00027612 RMS(Int)=  0.01275761
 Iteration 13 RMS(Cart)=  0.00019100 RMS(Int)=  0.01279232
 Iteration 14 RMS(Cart)=  0.00013218 RMS(Int)=  0.01281629
 Iteration 15 RMS(Cart)=  0.00009149 RMS(Int)=  0.01283286
 Iteration 16 RMS(Cart)=  0.00006334 RMS(Int)=  0.01284432
 Iteration 17 RMS(Cart)=  0.00004386 RMS(Int)=  0.01285224
 Iteration 18 RMS(Cart)=  0.00003037 RMS(Int)=  0.01285772
 Iteration 19 RMS(Cart)=  0.00002103 RMS(Int)=  0.01286151
 Iteration 20 RMS(Cart)=  0.00001456 RMS(Int)=  0.01286414
 Iteration 21 RMS(Cart)=  0.00001009 RMS(Int)=  0.01286596
 Iteration 22 RMS(Cart)=  0.00000699 RMS(Int)=  0.01286722
 Iteration 23 RMS(Cart)=  0.00000484 RMS(Int)=  0.01286809
 Iteration 24 RMS(Cart)=  0.00000335 RMS(Int)=  0.01286869
 Iteration 25 RMS(Cart)=  0.00000232 RMS(Int)=  0.01286911
 Iteration 26 RMS(Cart)=  0.00000161 RMS(Int)=  0.01286940
 Iteration 27 RMS(Cart)=  0.00000111 RMS(Int)=  0.01286960
 Iteration 28 RMS(Cart)=  0.00000077 RMS(Int)=  0.01286974
 GradGradGradGradGradGradGradGradGradGradGradGradGradGradGradGradGradGrad

                          Input orientation:                          
 ---------------------------------------------------------------------
 Center     Atomic      Atomic             Coordinates (Angstroms)
 Number     Number       Type             X           Y           Z
 ---------------------------------------------------------------------
      1          6           0        3.150930   -0.547106    0.801516
      2          6           0        1.900650   -0.640906   -0.059995
      3          8           0        1.554189   -1.716839   -0.551071
      4          7           0        1.185477    0.513093   -0.254110
      5          6           0        0.044641    0.490957   -1.173646
      6          6           0       -1.277120    0.710331   -0.418239
      7          8           0       -1.641593    1.868520   -0.198725
      8          7           0       -1.944850   -0.371671    0.083424
      9          6           0       -1.535224   -1.767691   -0.036483
     10          6           0       -3.197459   -0.147185    0.794635
     11          1           0        3.646195   -1.516610    0.764091
     12          1           0        2.899055   -0.319423    1.843042
     13          1           0        3.838745    0.227893    0.449375
     14          1           0        0.074353    1.290491   -1.920558
     15          1           0        0.137846   -0.469093   -1.675796
     16          1           0       -0.482719   -1.861329   -0.302732
     17          1           0       -1.674120   -2.260836    0.932680
     18          1           0       -2.153640   -2.299573   -0.773066
     19          1           0       -3.109379   -0.469309    1.839978
     20          1           0       -3.432078    0.915313    0.760944
     21          1           0       -4.006252   -0.721356    0.325515
     22          6           0        1.579599    1.819681    0.270337
     23          1           0        2.048789    1.721981    1.249986
     24          1           0        2.276827    2.335960   -0.404669
     25          1           0        0.680733    2.428290    0.380183
 ---------------------------------------------------------------------
                    Distance matrix (angstroms):
                    1          2          3          4          5
     1  C    0.000000
     2  C    1.521250   0.000000
     3  O    2.397362   1.232404   0.000000
     4  N    2.470095   1.371447   2.279634   0.000000
     5  C    3.824639   2.442560   2.746033   1.465450   0.000000
     6  C    4.761992   3.471656   3.731636   2.475929   1.538121
     7  O    5.459304   4.343264   4.815804   3.135693   2.385694
     8  N    5.149117   3.857580   3.802018   3.270426   2.506477
     9  C    4.914480   3.615996   3.132390   3.556902   2.981712
    10  C    6.360976   5.192770   5.181978   4.554773   3.846110
    11  H    1.089324   2.119647   2.479159   3.348367   4.555913
    12  H    1.095471   2.172951   3.081106   2.833281   4.231407
    13  H    1.094403   2.184144   3.162605   2.759721   4.135048
    14  H    4.500197   3.244587   3.620696   2.148486   1.094539
    15  H    3.901517   2.397459   2.197249   2.020746   1.087445
    16  H    4.018700   2.688643   2.057072   2.902262   2.563171
    17  H    5.122029   4.048278   3.594361   4.156976   3.868218
    18  H    5.804214   4.438120   3.759901   4.396602   3.574907
    19  H    6.346331   5.360944   5.387236   4.878125   4.466753
    20  H    6.743613   5.615492   5.788996   4.744885   4.001287
    21  H    7.175109   5.920015   5.716459   5.367857   4.486304
    22  C    2.890140   2.503334   3.630747   1.462035   2.491323
    23  H    2.562147   2.705778   3.913300   2.114006   3.377280
    24  H    3.245152   3.020272   4.119322   2.129919   2.996333
    25  H    3.890035   3.331954   4.337309   2.079681   2.563641
                    6          7          8          9         10
     6  C    0.000000
     7  O    1.233867   0.000000
     8  N    1.366843   2.278164   0.000000
     9  C    2.520505   3.641382   1.459809   0.000000
    10  C    2.427776   2.733230   1.457821   2.465729   0.000000
    11  H    5.531383   6.351915   5.747520   5.248911   6.979388
    12  H    4.859447   5.438142   5.153873   5.029208   6.188401
    13  H    5.211293   5.757238   5.826094   5.753083   7.054648
    14  H    2.102386   2.498659   3.294831   3.936109   4.488200
    15  H    2.230385   3.288247   2.727997   2.678221   4.163041
    16  H    2.694039   3.907119   2.122740   1.089690   3.392980
    17  H    3.287920   4.281671   2.088892   1.096248   2.609049
    18  H    3.154950   4.238521   2.119899   1.099040   2.860073
    19  H    3.138195   3.431640   2.109772   2.772158   1.097389
    20  H    2.465023   2.243971   2.080195   3.381192   1.088616
    21  H    3.170341   3.545970   2.104820   2.707737   1.097221
    22  C    3.140961   3.255531   4.154360   4.760830   5.192661
    23  H    3.855915   3.967260   4.657618   5.165072   5.587866
    24  H    3.908118   3.951572   5.039053   5.613132   6.129612
    25  H    2.724343   2.457981   3.849874   4.763437   4.673886
                   11         12         13         14         15
    11  H    0.000000
    12  H    1.776404   0.000000
    13  H    1.783090   1.767733   0.000000
    14  H    5.276856   4.973475   4.573439   0.000000
    15  H    4.399870   4.475366   4.324210   1.777660   0.000000
    16  H    4.278420   4.291645   4.858556   3.586315   2.051518
    17  H    5.374760   5.050918   6.067869   4.879553   3.646602
    18  H    6.050948   6.024512   6.617486   4.378270   3.068629
    19  H    6.920416   6.010304   7.120133   5.232081   4.785930
    20  H    7.484398   6.540548   7.309890   4.430155   4.538573
    21  H    7.706149   7.081505   7.903189   5.073826   4.608951
    22  C    3.955433   2.964815   2.769401   2.710319   3.332352
    23  H    3.643662   2.289541   2.465202   3.759911   4.124646
    24  H    4.252466   3.534181   2.759153   2.870856   3.749577
    25  H    4.950110   3.822412   3.849620   2.637364   3.593967
                   16         17         18         19         20
    16  H    0.000000
    17  H    1.762182   0.000000
    18  H    1.790320   1.772289   0.000000
    19  H    3.664460   2.468344   3.330360   0.000000
    20  H    4.188063   3.634258   3.784586   1.784833   0.000000
    21  H    3.756264   2.859630   2.670173   1.778063   1.788285
    22  C    4.258098   5.260798   5.656325   5.448831   5.116198
    23  H    4.653985   5.461096   6.158412   5.635294   5.561455
    24  H    5.024213   6.207174   6.422843   6.474503   5.997373
    25  H    4.496757   5.276218   5.631726   4.989191   4.398783
                   21         22         23         24         25
    21  H    0.000000
    22  C    6.136909   0.000000
    23  H    6.594549   1.090594   0.000000
    24  H    7.025485   1.099229   1.779566   0.000000
    25  H    5.647219   1.091069   1.768334   1.781020   0.000000
 Stoichiometry    C7H14N2O2
 Framework group  C1[X(C7H14N2O2)]
 Deg. of freedom    69
 Full point group                 C1      NOp   1
 Largest Abelian subgroup         C1      NOp   1
 Largest concise Abelian subgroup C1      NOp   1
                         Standard orientation:                         
 ---------------------------------------------------------------------
 Center     Atomic      Atomic             Coordinates (Angstroms)
 Number     Number       Type             X           Y           Z
 ---------------------------------------------------------------------
      1          6           0        3.181823   -0.471235    0.822957
      2          6           0        1.936669   -0.581998   -0.043947
      3          8           0        1.628026   -1.653984   -0.567785
      4          7           0        1.182555    0.552101   -0.205187
      5          6           0        0.044398    0.518417   -1.127688
      6          6           0       -1.285138    0.669624   -0.369211
      7          8           0       -1.689464    1.807542   -0.116049
      8          7           0       -1.915998   -0.449174    0.098298
      9          6           0       -1.458514   -1.826112   -0.062304
     10          6           0       -3.176539   -0.289166    0.812915
     11          1           0        3.710139   -1.421633    0.757752
     12          1           0        2.920869   -0.283618    1.870221
     13          1           0        3.843096    0.337088    0.495775
     14          1           0        0.047648    1.340512   -1.850297
     15          1           0        0.171195   -0.422401   -1.658084
     16          1           0       -0.403054   -1.875595   -0.328726
     17          1           0       -1.581706   -2.352535    0.891353
     18          1           0       -2.057302   -2.356582   -0.815925
     19          1           0       -3.078865   -0.639247    1.848370
     20          1           0       -3.447460    0.765196    0.810437
     21          1           0       -3.964503   -0.876420    0.324920
     22          6           0        1.530867    1.855137    0.359013
     23          1           0        2.001808    1.744282    1.336419
     24          1           0        2.210868    2.415002   -0.298599
     25          1           0        0.611483    2.429009    0.484860
 ---------------------------------------------------------------------
 Rotational constants (GHZ):      1.7154574      0.7531410      0.5962920
 Standard basis: 6-31G(d,p) (6D, 7F)
 There are   235 symmetry adapted basis functions of A   symmetry.
 Integral buffers will be    131072 words long.
 Raffenetti 2 integral format.
 Two-electron integral symmetry is turned on.
   235 basis functions,   406 primitive gaussians,   235 cartesian basis functions
    43 alpha electrons       43 beta electrons
       nuclear repulsion energy       666.3725503145 Hartrees.
 NAtoms=   25 NActive=   25 NUniq=   25 SFac= 1.00D+00 NAtFMM=   60 NAOKFM=F Big=F
 One-electron integrals computed using PRISM.
 NBasis=   235 RedAO= T  NBF=   235
 NBsUse=   235 1.00D-06 NBFU=   235
 Initial guess read from the read-write file.
 B after Tr=     0.000000    0.000000    0.000000
         Rot=    1.000000    0.000000    0.000000    0.000000 Ang=   0.00 deg.
 Initial guess orbital symmetries:
       Occupied  (A) (A) (A) (A) (A) (A) (A) (A) (A) (A) (A) (A)
                 (A) (A) (A) (A) (A) (A) (A) (A) (A) (A) (A) (A)
                 (A) (A) (A) (A) (A) (A) (A) (A) (A) (A) (A) (A)
                 (A) (A) (A) (A) (A) (A) (A)
[...]
                                  (DIIS)     (GDIIS)  (Total)
    R1        2.87617  -0.00002   0.00000  -0.00004  -0.00004   2.87613
    R2        2.05835   0.00000   0.00000   0.00000   0.00000   2.05835
    R3        2.06896   0.00000   0.00000   0.00001   0.00001   2.06897
    R4        2.06928   0.00000   0.00000  -0.00002  -0.00002   2.06926
    R5        2.31001   0.00002   0.00000   0.00002   0.00002   2.31003
    R6        2.63318  -0.00003   0.00001  -0.00010  -0.00008   2.63310
    R7        2.77112   0.00002   0.00000   0.00002   0.00003   2.77115
    R8        2.77029   0.00006   0.00001   0.00023   0.00024   2.77053
    R9        2.92443  -0.00002   0.00000   0.00003   0.00004   2.92447
   R10        2.07461   0.00001   0.00000   0.00002   0.00002   2.07463
   R11        2.05747  -0.00001   0.00000   0.00001   0.00001   2.05748
   R12        2.31788  -0.00003   0.00000  -0.00004  -0.00004   2.31784
   R13        2.60893   0.00000   0.00000   0.00006   0.00005   2.60898
   R14        2.75977   0.00000  -0.00001  -0.00002  -0.00003   2.75974
   R15        2.76121   0.00001   0.00000   0.00002   0.00002   2.76123
   R16        2.05271   0.00000   0.00000  -0.00003  -0.00003   2.05268
   R17        2.07311   0.00000   0.00001   0.00000   0.00001   2.07312
   R18        2.07599   0.00000   0.00000  -0.00001  -0.00001   2.07598
   R19        2.06817  -0.00001   0.00000   0.00000   0.00000   2.06817
   R20        2.05688   0.00000   0.00000  -0.00001  -0.00001   2.05687
   R21        2.07602   0.00000   0.00000   0.00001   0.00001   2.07603
   R22        2.06104   0.00001   0.00000   0.00002   0.00002   2.06106
   R23        2.07777   0.00000   0.00000  -0.00002  -0.00002   2.07775
   R24        2.06220  -0.00001   0.00000  -0.00005  -0.00005   2.06215
    A1        1.87229   0.00002   0.00001   0.00011   0.00012   1.87241
    A2        1.95280  -0.00002   0.00000  -0.00017  -0.00017   1.95263
    A3        1.95150   0.00000   0.00000   0.00008   0.00008   1.95158
    A4        1.90522   0.00000   0.00001  -0.00006  -0.00005   1.90517
    A5        1.90212  -0.00001  -0.00001   0.00001   0.00000   1.90212
    A6        1.87921   0.00000  -0.00001   0.00003   0.00002   1.87923
    A7        2.11339   0.00001   0.00000   0.00001   0.00001   2.11340
    A8        2.04340  -0.00006  -0.00001  -0.00013  -0.00014   2.04326
    A9        2.12575   0.00004   0.00001   0.00011   0.00012   2.12588
   A10        2.03262  -0.00024  -0.00001   0.00030   0.00030   2.03291
   A11        2.09733   0.00098  -0.00002  -0.00003  -0.00006   2.09727
   A12        2.01190  -0.00017   0.00000   0.00009   0.00009   2.01198
   A13        2.14192  -0.00009  -0.00003  -0.00024  -0.00027   2.14165
   A14        1.89965  -0.00173  -0.00004   0.00013   0.00009   1.89974
   A15        1.87897   0.00180   0.00004   0.00003   0.00007   1.87904
   A16        1.82876   0.00120   0.00000   0.00035   0.00035   1.82911
   A17        1.81529  -0.00114   0.00002  -0.00007  -0.00005   1.81524
   A18        1.88616  -0.00003   0.00001  -0.00022  -0.00021   1.88595
   A19        2.01103  -0.00011   0.00002   0.00009   0.00011   2.01115
   A20        2.13654   0.00007  -0.00001  -0.00013  -0.00013   2.13641
   A21        2.10901   0.00057   0.00001  -0.00002  -0.00001   2.10900
   A22        2.16977  -0.00003   0.00004   0.00009   0.00012   2.16989
   A23        2.02927   0.00001   0.00000   0.00008   0.00008   2.02935
   A24        1.98670   0.00002   0.00001   0.00003   0.00004   1.98675
   A25        1.93069   0.00002   0.00000   0.00016   0.00015   1.93084
   A26        1.93721   0.00000   0.00002   0.00010   0.00011   1.93732
   A27        1.91927   0.00000  -0.00001  -0.00005  -0.00006   1.91921
   A28        1.91527  -0.00001   0.00001  -0.00005  -0.00004   1.91523
   A29        1.87934  -0.00001   0.00000  -0.00015  -0.00015   1.87919
   A30        1.88050   0.00000  -0.00001  -0.00002  -0.00003   1.88047
   A31        1.89502   0.00000   0.00000   0.00004   0.00004   1.89506
   A32        1.91043   0.00000   0.00000   0.00001   0.00001   1.91044
   A33        1.95317  -0.00001  -0.00001  -0.00005  -0.00005   1.95311
   A34        1.91980   0.00000  -0.00001   0.00005   0.00004   1.91985
   A35        1.89557   0.00000   0.00000  -0.00002  -0.00002   1.89555
   A36        1.88983   0.00000   0.00001  -0.00003  -0.00002   1.88981
   A37        1.94106  -0.00001   0.00000  -0.00007  -0.00007   1.94098
   A38        1.95833  -0.00001   0.00000  -0.00014  -0.00013   1.95820
   A39        1.90482   0.00000  -0.00001   0.00002   0.00001   1.90483
   A40        1.89588   0.00000   0.00000   0.00000   0.00001   1.89588
   A41        1.87768   0.00002  -0.00001   0.00017   0.00016   1.87784
   A42        1.88349   0.00001   0.00002   0.00003   0.00004   1.88353
    D1       -0.04180   0.00000  -0.00012   0.00069   0.00057  -0.04124
    D2        3.06173   0.00000  -0.00012   0.00064   0.00052   3.06224
    D3       -2.13085   0.00000  -0.00013   0.00078   0.00065  -2.13020
    D4        0.97268   0.00000  -0.00014   0.00074   0.00060   0.97328
    D5        2.04269   0.00001  -0.00012   0.00081   0.00069   2.04338
    D6       -1.13697   0.00000  -0.00013   0.00077   0.00064  -1.13633
    D7        2.92480   0.00048   0.00005   0.00027   0.00032   2.92512
    D8        0.35505  -0.00048   0.00011  -0.00042  -0.00031   0.35473
    D9       -0.25514   0.00048   0.00004   0.00022   0.00026  -0.25488
   D10       -2.82490  -0.00049   0.00010  -0.00047  -0.00037  -2.82526
   D11        1.98043  -0.00211   0.00000   0.00000   0.00000   1.98043
   D12       -2.16191  -0.00215  -0.00006   0.00043   0.00037  -2.16153
   D13       -0.12149  -0.00212  -0.00005   0.00025   0.00021  -0.12128
   D14       -1.70498  -0.00081  -0.00006   0.00061   0.00055  -1.70443
   D15        0.43587  -0.00085  -0.00012   0.00104   0.00092   0.43679
   D16        2.47629  -0.00082  -0.00011   0.00087   0.00076   2.47705
   D17       -0.86945   0.00047  -0.00015   0.00035   0.00020  -0.86926
   D18        1.25815   0.00046  -0.00015   0.00020   0.00006   1.25821
   D19       -2.93830   0.00046  -0.00013   0.00017   0.00003  -2.93827
   D20        2.83755  -0.00045  -0.00009  -0.00040  -0.00049   2.83706
   D21       -1.31802  -0.00046  -0.00009  -0.00055  -0.00063  -1.31866
   D22        0.76870  -0.00046  -0.00007  -0.00058  -0.00066   0.76805
   D23       -2.67201  -0.00180   0.00012  -0.00027  -0.00015  -2.67216
   D24        0.71378  -0.00424   0.00000   0.00000   0.00000   0.71378
   D25        1.43806  -0.00044   0.00020  -0.00060  -0.00041   1.43766
   D26       -1.45933  -0.00288   0.00007  -0.00033  -0.00026  -1.45959
   D27       -0.54036  -0.00042   0.00018  -0.00047  -0.00029  -0.54065
   D28        2.84543  -0.00286   0.00006  -0.00020  -0.00014   2.84529
   D29       -0.74479   0.00126   0.00022   0.00026   0.00048  -0.74431
   D30        2.88661   0.00125   0.00010  -0.00022  -0.00013   2.88649
   D31        2.65438  -0.00122   0.00008   0.00053   0.00062   2.65500
   D32        0.00260  -0.00123  -0.00003   0.00005   0.00002   0.00261
   D33        0.19351   0.00000  -0.00030  -0.00118  -0.00148   0.19204
   D34        2.32394  -0.00001  -0.00029  -0.00106  -0.00135   2.32258
   D35       -1.88011   0.00000  -0.00030  -0.00105  -0.00135  -1.88146
   D36        2.85577   0.00000  -0.00019  -0.00069  -0.00088   2.85489
   D37       -1.29699   0.00000  -0.00018  -0.00058  -0.00075  -1.29774
   D38        0.78215   0.00001  -0.00018  -0.00057  -0.00075   0.78140
   D39       -2.71966   0.00000   0.00009   0.00063   0.00072  -2.71894
   D40       -0.62370   0.00000   0.00008   0.00073   0.00081  -0.62289
   D41        1.47144   0.00000   0.00009   0.00066   0.00076   1.47219
   D42        0.86064   0.00000  -0.00002   0.00018   0.00016   0.86080
   D43        2.95661   0.00001  -0.00003   0.00028   0.00025   2.95685
   D44       -1.23145   0.00000  -0.00002   0.00021   0.00019  -1.23125
         Item               Value     Threshold  Converged?
 Maximum Force            0.000095     0.000450     YES
 RMS     Force            0.000020     0.000300     YES
 Maximum Displacement     0.003391     0.001800     NO 
 RMS     Displacement     0.000876     0.001200     YES
 Predicted change in Energy=-1.129840D-07
 GradGradGradGradGradGradGradGradGradGradGradGradGradGradGradGradGradGrad

                          Input orientation:                          
 ---------------------------------------------------------------------
 Center     Atomic      Atomic             Coordinates (Angstroms)
 Number     Number       Type             X           Y           Z
 ---------------------------------------------------------------------
      1          6           0        3.382094   -0.867633    0.022317
      2          6           0        2.138088   -0.571630   -0.803068
      3          8           0        2.013099   -1.011983   -1.936541
      4          7           0        1.136051    0.179845   -0.192576
      5          6           0        0.079877    0.695966   -1.069232
      6          6           0       -1.389033    0.217065   -0.980277
      7          8           0       -2.030830    0.302628   -2.022002
      8          7           0       -2.023659   -0.003371    0.225853
      9          6           0       -1.410940   -0.676540    1.367852
     10          6           0       -3.478680   -0.128459    0.177776
     11          1           0        4.015837   -1.524728   -0.571843
     12          1           0        3.136417   -1.363296    0.967122
     13          1           0        3.939015    0.044588    0.260498
     14          1           0        0.026594    1.786670   -0.956138
     15          1           0        0.366738    0.476803   -2.096411
     16          1           0       -0.343794   -0.803531    1.209831
     17          1           0       -1.583996   -0.115178    2.294370
     18          1           0       -1.850449   -1.675352    1.494519
     19          1           0       -3.883815    0.133207    1.160208
     20          1           0       -3.875663    0.544635   -0.579900
     21          1           0       -3.794151   -1.151083   -0.070437
     22          6           0        1.447220    1.015072    0.971478
     23          1           0        1.997306    0.451335    1.725902
     24          1           0        2.034506    1.904003    0.699821
     25          1           0        0.515762    1.354551    1.427496
 ---------------------------------------------------------------------
                    Distance matrix (angstroms):
                    1          2          3          4          5
     1  C    0.000000
     2  C    1.521981   0.000000
     3  O    2.394182   1.222414   0.000000
     4  N    2.487589   1.393375   2.287156   0.000000
     5  C    3.813261   2.431846   2.721518   1.466427   0.000000
     6  C    4.994538   3.618566   3.741590   2.645355   1.547564
     7  O    5.903261   4.430576   4.253101   3.659373   2.348951
     8  N    5.478187   4.324550   4.689206   3.192556   2.567329
     9  C    4.981983   4.161670   4.770281   3.107329   3.169493
    10  C    6.902229   5.718963   5.950679   4.639823   3.859797
    11  H    1.089234   2.118444   2.477150   3.367875   4.546500
    12  H    1.094850   2.181048   3.133134   2.779866   4.210669
    13  H    1.095006   2.180421   3.106843   2.842566   4.133452
    14  H    4.388858   3.169135   3.569292   2.096618   1.097845
    15  H    3.922867   2.430973   2.225431   2.074756   1.088770
    16  H    3.911078   3.203947   3.936756   2.263562   2.760818
    17  H    5.512754   4.863782   5.625296   3.697377   3.839302
    18  H    5.495388   4.733448   5.209533   3.899645   3.990254
    19  H    7.422257   6.372955   6.758321   5.199158   4.582352
    20  H    7.418369   6.120544   6.240277   5.039878   3.988564
    21  H    7.182439   6.005328   6.101298   5.108148   4.406503
    22  C    2.861682   2.478696   3.589672   1.466101   2.477086
    23  H    2.561155   2.731660   3.943988   2.120384   3.398405
    24  H    3.155466   2.897958   3.931136   2.139232   2.899910
    25  H    3.889535   3.364153   4.377127   2.095072   2.618660
                    6          7          8          9         10
     6  C    0.000000
     7  O    1.226546   0.000000
     8  N    1.380613   2.268598   0.000000
     9  C    2.512513   3.582477   1.460391   0.000000
    10  C    2.413939   2.668544   1.461180   2.447902   0.000000
    11  H    5.693266   6.481078   6.279041   5.825097   7.660241
    12  H    5.173935   6.197629   5.387509   4.616349   6.775500
    13  H    5.473332   6.396518   5.962968   5.510743   7.420175
    14  H    2.113821   2.751625   2.967303   3.678972   4.152159
    15  H    2.096652   2.405038   3.367117   4.060968   4.508382
    16  H    2.632625   3.809780   2.104855   1.086232   3.368735
    17  H    3.297227   4.359505   2.117679   1.097046   2.840770
    18  H    3.149407   4.038671   2.105952   1.098562   2.603426
    19  H    3.288259   3.686287   2.086110   2.610347   1.094430
    20  H    2.539869   2.354068   2.092718   3.370440   1.088450
    21  H    2.912770   3.005192   2.130650   2.823749   1.098586
    22  C    3.534189   4.643849   3.693261   3.344808   5.118800
    23  H    4.341150   5.504070   4.315677   3.607832   5.720078
    24  H    4.170025   5.147784   4.509038   4.356210   5.899039
    25  H    3.274063   4.414829   3.120346   2.800191   4.440348
                   11         12         13         14         15
    11  H    0.000000
    12  H    1.779846   0.000000
    13  H    1.778045   1.767942   0.000000
    14  H    5.198760   4.826201   4.452201   0.000000
    15  H    4.432421   4.521319   4.301511   1.769653   0.000000
    16  H    4.764542   3.533286   4.467996   3.396726   3.615985
    17  H    6.446715   5.059811   5.887768   4.095952   4.840946
    18  H    6.221403   5.024377   6.164325   4.638384   4.737348
    19  H    8.255498   7.180561   7.874897   4.743854   5.365708
    20  H    8.158315   7.429855   7.875628   4.112398   4.505816
    21  H    7.834981   7.011015   7.832050   4.900300   4.905872
    22  C    3.928132   2.917198   2.767016   2.515799   3.296835
    23  H    3.641280   2.272929   2.466392   3.586107   4.155656
    24  H    4.159206   3.458453   2.697700   2.605317   3.554893
    25  H    4.953597   3.803481   3.846629   2.471381   3.634635
                   16         17         18         19         20
    16  H    0.000000
    17  H    1.785541   0.000000
    18  H    1.763839   1.773386   0.000000
    19  H    3.662198   2.576273   2.741756   0.000000
    20  H    4.182678   3.734771   3.651445   1.788103   0.000000
    21  H    3.696599   3.398557   2.549887   1.780990   1.772471
    22  C    2.563564   3.495108   4.287957   5.406776   5.564276
    23  H    2.705877   3.670126   4.402449   5.916824   6.310087
    24  H    3.639665   4.439959   5.341929   6.194691   6.198038
    25  H    2.333138   2.705653   3.844965   4.573773   4.895939
                   21         22         23         24         25
    21  H    0.000000
    22  C    5.766262   0.000000
    23  H    6.271806   1.090665   0.000000
    24  H    6.625714   1.099500   1.778896   0.000000
    25  H    5.205512   1.091243   1.760630   1.771438   0.000000
 Stoichiometry    C7H14N2O2
 Framework group  C1[X(C7H14N2O2)]
 Deg. of freedom    69
 Full point group                 C1      NOp   1
 Largest Abelian subgroup         C1      NOp   1
 Largest concise Abelian subgroup C1      NOp   1
                         Standard orientation:                         
 ---------------------------------------------------------------------
 Center     Atomic      Atomic             Coordinates (Angstroms)
 Number     Number       Type             X           Y           Z
 ---------------------------------------------------------------------
      1          6           0        3.425068   -0.485321   -0.541925
      2          6           0        2.204243    0.396285   -0.321047
      3          8           0        2.169854    1.543666   -0.741319
      4          7           0        1.118174   -0.177737    0.336558
      5          6           0        0.069914    0.740821    0.792418
      6          6           0       -1.360190    0.737274    0.201026
      7          8           0       -1.954387    1.808470    0.263360
      8          7           0       -2.034740   -0.429883   -0.096999
      9          6           0       -1.429048   -1.587374   -0.749757
     10          6           0       -3.471582   -0.304747   -0.331250
     11          1           0        4.136296    0.089271   -1.133894
     12          1           0        3.172017   -1.405692   -1.078188
     13          1           0        3.897369   -0.770806    0.403839
     14          1           0       -0.073025    0.607730    1.872752
     15          1           0        0.423289    1.756339    0.621335
     16          1           0       -0.348775   -1.481573   -0.791178
     17          1           0       -1.690566   -2.515395   -0.226408
     18          1           0       -1.795779   -1.670372   -1.781967
     19          1           0       -3.943804   -1.270421   -0.125690
     20          1           0       -3.881444    0.457964    0.328301
     21          1           0       -3.694422   -0.019291   -1.368432
     22          6           0        1.305930   -1.373477    1.163848
     23          1           0        1.859961   -2.143077    0.625038
     24          1           0        1.835476   -1.150971    2.101383
     25          1           0        0.329619   -1.788227    1.419993
 ---------------------------------------------------------------------
 Rotational constants (GHZ):      1.9368469      0.6384540      0.5513382
 Standard basis: 6-31G(d,p) (6D, 7F)
 There are   235 symmetry adapted basis functions of A   symmetry.
 Integral buffers will be    131072 words long.
 Raffenetti 2 integral format.
 Two-electron integral symmetry is turned on.
   235 basis functions,   406 primitive gaussians,   235 cartesian basis functions
    43 alpha electrons       43 beta electrons
       nuclear repulsion energy       656.4470979455 Hartrees.
 NAtoms=   25 NActive=   25 NUniq=   25 SFac= 1.00D+00 NAtFMM=   60 NAOKFM=F Big=F
 One-electron integrals computed using PRISM.
 NBasis=   235 RedAO= T  NBF=   235
 NBsUse=   235 1.00D-06 NBFU=   235
 Initial guess read from the read-write file.
 B after Tr=     0.000000    0.000000    0.000000
         Rot=    1.000000    0.000000    0.000000    0.000000 Ang=   0.00 deg.
 Initial guess orbital symmetries:
       Occupied  (A) (A) (A) (A) (A) (A) (A) (A) (A) (A) (A) (A)
                 (A) (A) (A) (A) (A) (A) (A) (A) (A) (A) (A) (A)
                 (A) (A) (A) (A) (A) (A) (A) (A) (A) (A) (A) (A)
                 (A) (A) (A) (A) (A) (A) (A)
       Virtual   (A) (A) (A) (A) (A) (A) (A) (A) (A) (A) (A) (A)
                 (A) (A) (A) (A) (A) (A) (A) (A) (A) (A) (A) (A)
                 (A) (A) (A) (A) (A) (A) (A) (A) (A) (A) (A) (A)
                 (A) (A) (A) (A) (A) (A) (A) (A) (A) (A) (A) (A)
                 (A) (A) (A) (A) (A) (A) (A) (A) (A) (A) (A) (A)
                 (A) (A) (A) (A) (A) (A) (A) (A) (A) (A) (A) (A)
                 (A) (A) (A) (A) (A) (A) (A) (A) (A) (A) (A) (A)
                 (A) (A) (A) (A) (A) (A) (A) (A) (A) (A) (A) (A)
                 (A) (A) (A) (A) (A) (A) (A) (A) (A) (A) (A) (A)
                 (A) (A) (A) (A) (A) (A) (A) (A) (A) (A) (A) (A)
                 (A) (A) (A) (A) (A) (A) (A) (A) (A) (A) (A) (A)
                 (A) (A) (A) (A) (A) (A) (A) (A) (A) (A) (A) (A)
                 (A) (A) (A) (A) (A) (A) (A) (A) (A) (A) (A) (A)
                 (A) (A) (A) (A) (A) (A) (A) (A) (A) (A) (A) (A)
                 (A) (A) (A) (A) (A) (A) (A) (A) (A) (A) (A) (A)
                 (A) (A) (A) (A) (A) (A) (A) (A) (A) (A) (A) (A)
