 Entering Gaussian System, Link 0=/data/opt/apps/g09-C01/g09
 Initial command:
 /data/opt/apps/g09-C01/l1.exe /tmp/g09-tuu61186-1341588fea2dfb32ex/Gau-1341639.inp -scrdir=/tmp/g09-tuu61186-1341588fea2dfb32ex/
 Entering Link 1 = /data/opt/apps/g09-C01/l1.exe PID=   1341642.
  
 Copyright (c) 1988,1990,1992,1993,1995,1998,2003,2009,2011,
            Gaussian, Inc.  All Rights Reserved.
  
 This is part of the Gaussian(R) 09 program.  It is based on
 the Gaussian(R) 03 system (copyright 2003, Gaussian, Inc.),
 the Gaussian(R) 98 system (copyright 1998, Gaussian, Inc.),
 the Gaussian(R) 94 system (copyright 1995, Gaussian, Inc.),
 the Gaussian 92(TM) system (copyright 1992, Gaussian, Inc.),
 the Gaussian 90(TM) system (copyright 1990, Gaussian, Inc.),
 the Gaussian 88(TM) system (copyright 1988, Gaussian, Inc.),
 the Gaussian 86(TM) system (copyright 1986, Carnegie Mellon
 University), and the Gaussian 82(TM) system (copyright 1983,
 Carnegie Mellon University). Gaussian is a federally registered
 trademark of Gaussian, Inc.
  
 This software contains proprietary and confidential information,
 including trade secrets, belonging to Gaussian, Inc.
  
 This software is provided under written license and may be
 used, copied, transmitted, or stored only in accord with that
 written license.
  
 The following legend is applicable only to US Government
 contracts under FAR:
  
                    RESTRICTED RIGHTS LEGEND
  
 Use, reproduction and disclosure by the US Government is
 subject to restrictions as set forth in subparagraphs (a)
 and (c) of the Commercial Computer Software - Restricted
 Rights clause in FAR 52.227-19.
  
 Gaussian, Inc.
 340 Quinnipiac St., Bldg. 40, Wallingford CT 06492
  
  
 ---------------------------------------------------------------
 Warning -- This program may not be used in any manner that
 competes with the business of Gaussian, Inc. or will provide
 assistance to any competitor of Gaussian, Inc.  The licensee
 of this program is prohibited from giving any competitor of
 Gaussian, Inc. access to this program.  By using this program,
 the user acknowledges that Gaussian, Inc. is engaged in the
 business of creating and licensing software in the field of
 computational chemistry and represents and warrants to the
 licensee that it is not a competitor of Gaussian, Inc. and that
 it will not use this program in any manner prohibited above.
 ---------------------------------------------------------------
  

 Cite this work as:
 Gaussian 09, Revision C.01,
 M. J. Frisch, G. W. Trucks, H. B. Schlegel, G. E. Scuseria, 
 M. A. Robb, J. R. Cheeseman, G. Scalmani, V. Barone, B. Mennucci, 
 G. A. Petersson, H. Nakatsuji, M. Caricato, X. Li, H. P. Hratchian, 
 A. F. Izmaylov, J. Bloino, G. Zheng, J. L. Sonnenberg, M. Hada, 
 M. Ehara, K. Toyota, R. Fukuda, J. Hasegawa, M. Ishida, T. Nakajima, 
 Y. Honda, O. Kitao, H. Nakai, T. Vreven, J. A. Montgomery, Jr., 
 J. E. Peralta, F. Ogliaro, M. Bearpark, J. J. Heyd, E. Brothers, 
 K. N. Kudin, V. N. Staroverov, T. Keith, R. Kobayashi, J. Normand, 
 K. Raghavachari, A. Rendell, J. C. Burant, S. S. Iyengar, J. Tomasi, 
 M. Cossi, N. Rega, J. M. Millam, M. Klene, J. E. Knox, J. B. Cross, 
 V. Bakken, C. Adamo, J. Jaramillo, R. Gomperts, R. E. Stratmann, 
 O. Yazyev, A. J. Austin, R. Cammi, C. Pomelli, J. W. Ochterski, 
 R. L. Martin, K. Morokuma, V. G. Zakrzewski, G. A. Voth, 
 P. Salvador, J. J. Dannenberg, S. Dapprich, A. D. Daniels, 
 O. Farkas, J. B. Foresman, J. V. Ortiz, J. Cioslowski, 
 and D. J. Fox, Gaussian, Inc., Wallingford CT, 2010.
 
 ******************************************
 Gaussian 09:  EM64L-G09RevC.01 23-Sep-2011
                14-Apr-2026 
 ******************************************
 %mem=1GB
 %nprocshared=6
 Will use up to    6 processors via shared memory.
 %chk=HCl_SVWN.chk
 ---------------------------
 # opt freq svwn/aug-cc-pvtz
 ---------------------------
 1/14=-1,18=20,19=15,26=3,38=1/1,3;
 2/9=110,12=2,17=6,18=5,40=1/2;
 3/5=16,6=1,7=10,11=2,16=1,25=1,30=1,71=1,74=205/1,2,3;
 4//1;
 5/5=2,38=5/2;
 6/7=2,8=2,9=2,10=2,28=1/1;
 7//1,2,3,16;
 1/14=-1,18=20,19=15/3(2);
 2/9=110/2;
 99//99;
 2/9=110/2;
 3/5=16,6=1,7=10,11=2,16=1,25=1,30=1,71=1,74=205/1,2,3;
 4/5=5,16=3/1;
 5/5=2,38=5/2;
 7//1,2,3,16;
 1/14=-1,18=20,19=15/3(-5);
 2/9=110/2;
 6/7=2,8=2,9=2,10=2,19=2,28=1/1;
 99/9=1/99;
 -------------------
 Title Card Required
 -------------------
 Charge =  0 Multiplicity = 1
 Symbolic Z-Matrix:
 Cl                   -0.42954  -0.02232   0.01125 
 H                    -1.71954  -0.02232   0.01125 
 

 GradGradGradGradGradGradGradGradGradGradGradGradGradGradGradGradGradGrad
 Berny optimization.
 Initialization pass.
                           ----------------------------
                           !    Initial Parameters    !
                           ! (Angstroms and Degrees)  !
 --------------------------                            --------------------------
 ! Name  Definition              Value          Derivative Info.                !
 --------------------------------------------------------------------------------
 ! R1    R(1,2)                  1.29           estimate D2E/DX2                !
 --------------------------------------------------------------------------------
 Trust Radius=3.00D-01 FncErr=1.00D-07 GrdErr=1.00D-06
 Number of steps in this run=     20 maximum allowed number of steps=    100.
 GradGradGradGradGradGradGradGradGradGradGradGradGradGradGradGradGradGrad

                          Input orientation:                          
 ---------------------------------------------------------------------
 Center     Atomic      Atomic             Coordinates (Angstroms)
 Number     Number       Type             X           Y           Z
 ---------------------------------------------------------------------
      1         17           0       -0.429540   -0.022321    0.011248
      2          1           0       -1.719540   -0.022321    0.011248
 ---------------------------------------------------------------------
 Stoichiometry    ClH
 Framework group  C*V[C*(HCl)]
 Deg. of freedom     1
 Full point group                 C*V     NOp   4
 Largest Abelian subgroup         C2V     NOp   4
 Largest concise Abelian subgroup C1      NOp   1
                         Standard orientation:                         
 ---------------------------------------------------------------------
 Center     Atomic      Atomic             Coordinates (Angstroms)
 Number     Number       Type             X           Y           Z
 ---------------------------------------------------------------------
      1         17           0        0.000000    0.000000    0.071667
      2          1           0        0.000000    0.000000   -1.218333
 ---------------------------------------------------------------------
 Rotational constants (GHZ):      0.0000000    310.0218507    310.0218507
 Standard basis: Aug-CC-pVTZ (5D, 7F)
 There are    32 symmetry adapted basis functions of A1  symmetry.
 There are     7 symmetry adapted basis functions of A2  symmetry.
 There are    17 symmetry adapted basis functions of B1  symmetry.
 There are    17 symmetry adapted basis functions of B2  symmetry.
 Integral buffers will be    131072 words long.
 Raffenetti 2 integral format.
 Two-electron integral symmetry is turned on.
    73 basis functions,   141 primitive gaussians,    84 cartesian basis functions
     9 alpha electrons        9 beta electrons
       nuclear repulsion energy         6.9736531365 Hartrees.
 NAtoms=    2 NActive=    2 NUniq=    2 SFac= 1.00D+00 NAtFMM=   60 NAOKFM=F Big=F
 One-electron integrals computed using PRISM.
 NBasis=    73 RedAO= T  NBF=    32     7    17    17
 NBsUse=    73 1.00D-06 NBFU=    32     7    17    17
 Harris functional with IExCor=  205 diagonalized for initial guess.
 ExpMin= 2.53D-02 ExpMax= 4.56D+05 ExpMxC= 1.44D+03 IAcc=3 IRadAn=         5 AccDes= 0.00D+00
 HarFok:  IExCor=  205 AccDes= 0.00D+00 IRadAn=         5 IDoV= 1
 ScaDFX=  1.000000  1.000000  1.000000  1.000000
 FoFCou: FMM=F IPFlag=           0 FMFlag=      100000 FMFlg1=           0
         NFxFlg=           0 DoJE=T BraDBF=F KetDBF=T FulRan=T
         Omega=  0.000000  0.000000  1.000000  0.000000  0.000000 ICntrl=     500 IOpCl=  0
         NMat0=    1 NMatS0=    1 NMatT0=    0 NMatD0=    1 NMtDS0=    0 NMtDT0=    0
         I1Cent=           4 NGrid=           0.
 Petite list used in FoFCou.
 Initial guess orbital symmetries:
       Occupied  (SG) (SG) (SG) (PI) (PI) (SG) (SG) (PI) (PI)
       Virtual   (SG) (SG) (SG) (PI) (PI) (SG) (PI) (PI) (DLTA)
                 (DLTA) (SG) (PI) (PI) (SG) (PI) (PI) (SG) (SG)
                 (PI) (PI) (DLTA) (DLTA) (DLTA) (DLTA) (SG) (PI)
                 (PI) (SG) (PHI) (PHI) (PI) (PI) (SG) (DLTA) (DLTA)
                 (PI) (PI) (SG) (SG) (DLTA) (DLTA) (SG) (PI) (PI)
                 (PI) (PI) (SG) (PI) (PI) (PHI) (PHI) (DLTA) (DLTA)
                 (SG) (SG) (DLTA) (DLTA) (PI) (PI) (PI) (PI) (SG)
                 (SG) (SG)
 The electronic state of the initial guess is 1-SG.
 Requested convergence on RMS density matrix=1.00D-08 within 128 cycles.
 Requested convergence on MAX density matrix=1.00D-06.
 Requested convergence on             energy=1.00D-06.
 No special actions if energy rises.
 Keep J ints in memory in canonical form, NReq=8371914.
 SCF Done:  E(RS-VWN) =  -459.690807226     A.U. after    8 cycles
             Convg  =    0.1542D-08             -V/T =  2.0015

 **********************************************************************

            Population analysis using the SCF density.

 **********************************************************************

 Orbital symmetries:
       Occupied  (SG) (SG) (SG) (PI) (PI) (SG) (SG) (PI) (PI)
       Virtual   (SG) (SG) (SG) (PI) (PI) (SG) (PI) (PI) (DLTA)
                 (DLTA) (SG) (PI) (PI) (SG) (SG) (PI) (PI) (SG)
                 (PI) (PI) (DLTA) (DLTA) (DLTA) (DLTA) (SG) (PI)
                 (PI) (SG) (PHI) (PHI) (PI) (PI) (SG) (DLTA) (DLTA)
                 (PI) (PI) (SG) (SG) (DLTA) (DLTA) (SG) (PI) (PI)
                 (PI) (PI) (SG) (PI) (PI) (PHI) (PHI) (DLTA) (DLTA)
                 (SG) (SG) (DLTA) (DLTA) (PI) (PI) (PI) (PI) (SG)
                 (SG) (SG)
 The electronic state is 1-SG.
 Alpha  occ. eigenvalues -- -100.36955  -9.17582  -7.03657  -7.02608  -7.02608
 Alpha  occ. eigenvalues --   -0.79249  -0.45058  -0.31690  -0.31690
 Alpha virt. eigenvalues --   -0.05918   0.01301   0.04189   0.04842   0.04842
 Alpha virt. eigenvalues --    0.09375   0.11001   0.11001   0.17810   0.17810
 Alpha virt. eigenvalues --    0.22851   0.28766   0.28766   0.30019   0.43177
 Alpha virt. eigenvalues --    0.43758   0.43758   0.48586   0.62596   0.62596
 Alpha virt. eigenvalues --    0.63854   0.63855   0.68374   0.68375   0.69752
 Alpha virt. eigenvalues --    0.75481   0.75481   0.85393   0.92233   0.92233
 Alpha virt. eigenvalues --    1.03834   1.03834   1.04768   1.11961   1.11962
 Alpha virt. eigenvalues --    1.47195   1.47195   1.48098   1.54254   2.06515
 Alpha virt. eigenvalues --    2.06515   2.07349   2.11330   2.11330   2.37445
 Alpha virt. eigenvalues --    2.37445   2.51022   2.59495   2.59495   2.62323
 Alpha virt. eigenvalues --    2.62323   2.63941   2.63942   2.85597   3.15946
 Alpha virt. eigenvalues --    3.52444   3.52444   3.99138   3.99138   4.04288
 Alpha virt. eigenvalues --    4.04288   4.28485   4.67216   6.84748
          Condensed to atoms (all electrons):
              1          2
     1  Cl  16.777081   0.344008
     2  H    0.344008   0.534902
 Mulliken atomic charges:
              1
     1  Cl  -0.121089
     2  H    0.121089
 Sum of Mulliken atomic charges =   0.00000
 Mulliken charges with hydrogens summed into heavy atoms:
              1
     1  Cl   0.000000
 Sum of Mulliken charges with hydrogens summed into heavy atoms =   0.00000
 Electronic spatial extent (au):  <R**2>=             34.4360
 Charge=              0.0000 electrons
 Dipole moment (field-independent basis, Debye):
    X=              0.0000    Y=              0.0000    Z=             -1.1486  Tot=              1.1486
 Quadrupole moment (field-independent basis, Debye-Ang):
   XX=            -14.1411   YY=            -14.1411   ZZ=            -10.4865
   XY=              0.0000   XZ=              0.0000   YZ=              0.0000
 Traceless Quadrupole moment (field-independent basis, Debye-Ang):
   XX=             -1.2182   YY=             -1.2182   ZZ=              2.4364
   XY=              0.0000   XZ=              0.0000   YZ=              0.0000
 Octapole moment (field-independent basis, Debye-Ang**2):
  XXX=              0.0000  YYY=              0.0000  ZZZ=             -2.5991  XYY=              0.0000
  XXY=              0.0000  XXZ=              0.0469  XZZ=              0.0000  YZZ=              0.0000
  YYZ=              0.0469  XYZ=              0.0000
 Hexadecapole moment (field-independent basis, Debye-Ang**3):
 XXXX=            -17.1704 YYYY=            -17.1704 ZZZZ=            -14.4850 XXXY=              0.0000
 XXXZ=              0.0000 YYYX=              0.0000 YYYZ=              0.0000 ZZZX=              0.0000
 ZZZY=              0.0000 XXYY=             -5.7235 XXZZ=             -6.1056 YYZZ=             -6.1056
 XXYZ=              0.0000 YYXZ=              0.0000 ZZXY=              0.0000
 N-N= 6.973653136457D+00 E-N=-1.108593905384D+03  KE= 4.589837614274D+02
 Symmetry A1   KE= 3.677925358328D+02
 Symmetry A2   KE= 4.149382337180D-36
 Symmetry B1   KE= 4.559561279733D+01
 Symmetry B2   KE= 4.559561279733D+01
 Calling FoFJK, ICntrl=      2527 FMM=F ISym2X=1 I1Cent= 0 IOpClX= 0 NMat=1 NMatS=1 NMatT=0.
 ***** Axes restored to original set *****
 -------------------------------------------------------------------
 Center     Atomic                   Forces (Hartrees/Bohr)
 Number     Number              X              Y              Z
 -------------------------------------------------------------------
      1       17           0.001219367    0.000000000    0.000000000
      2        1          -0.001219367    0.000000000    0.000000000
 -------------------------------------------------------------------
 Cartesian Forces:  Max     0.001219367 RMS     0.000704002

 GradGradGradGradGradGradGradGradGradGradGradGradGradGradGradGradGradGrad
 Berny optimization.
 Internal  Forces:  Max     0.001219367 RMS     0.001219367
 Search for a local minimum.
 Step number   1 out of a maximum of   20
 All quantities printed in internal units (Hartrees-Bohrs-Radians)
 Mixed Optimization -- RFO/linear search
 Second derivative matrix not updated -- first step.
 The second derivative matrix:
                          R1
           R1           0.30863
 ITU=  0
     Eigenvalues ---    0.30863
 RFO step:  Lambda=-4.81751063D-06 EMin= 3.08630926D-01
 Linear search not attempted -- first point.
 Iteration  1 RMS(Cart)=  0.00279366 RMS(Int)=  0.00000000
 Iteration  2 RMS(Cart)=  0.00000000 RMS(Int)=  0.00000000
 ClnCor:  largest displacement from symmetrization is 0.00D+00 for atom     0.
 Variable       Old X    -DE/DX   Delta X   Delta X   Delta X     New X
                                 (Linear)    (Quad)   (Total)
    R1        2.43775   0.00122   0.00000   0.00395   0.00395   2.44170
         Item               Value     Threshold  Converged?
 Maximum Force            0.001219     0.000450     NO 
 RMS     Force            0.001219     0.000300     NO 
 Maximum Displacement     0.001975     0.001800     NO 
 RMS     Displacement     0.002794     0.001200     NO 
 Predicted change in Energy=-2.408793D-06
 GradGradGradGradGradGradGradGradGradGradGradGradGradGradGradGradGradGrad

                          Input orientation:                          
 ---------------------------------------------------------------------
 Center     Atomic      Atomic             Coordinates (Angstroms)
 Number     Number       Type             X           Y           Z
 ---------------------------------------------------------------------
      1         17           0       -0.428495   -0.022321    0.011248
      2          1           0       -1.720586   -0.022321    0.011248
 ---------------------------------------------------------------------
 Stoichiometry    ClH
 Framework group  C*V[C*(HCl)]
 Deg. of freedom     1
 Full point group                 C*V     NOp   4
 Largest Abelian subgroup         C2V     NOp   4
 Largest concise Abelian subgroup C1      NOp   1
                         Standard orientation:                         
 ---------------------------------------------------------------------
 Center     Atomic      Atomic             Coordinates (Angstroms)
 Number     Number       Type             X           Y           Z
 ---------------------------------------------------------------------
      1         17           0        0.000000    0.000000    0.071783
      2          1           0        0.000000    0.000000   -1.220308
 ---------------------------------------------------------------------
 Rotational constants (GHZ):      0.0000000    309.0193905    309.0193905
 Standard basis: Aug-CC-pVTZ (5D, 7F)
 There are    32 symmetry adapted basis functions of A1  symmetry.
 There are     7 symmetry adapted basis functions of A2  symmetry.
 There are    17 symmetry adapted basis functions of B1  symmetry.
 There are    17 symmetry adapted basis functions of B2  symmetry.
 Integral buffers will be    131072 words long.
 Raffenetti 2 integral format.
 Two-electron integral symmetry is turned on.
    73 basis functions,   141 primitive gaussians,    84 cartesian basis functions
     9 alpha electrons        9 beta electrons
       nuclear repulsion energy         6.9623693020 Hartrees.
 NAtoms=    2 NActive=    2 NUniq=    2 SFac= 1.00D+00 NAtFMM=   60 NAOKFM=F Big=F
 One-electron integrals computed using PRISM.
 NBasis=    73 RedAO= T  NBF=    32     7    17    17
 NBsUse=    73 1.00D-06 NBFU=    32     7    17    17
 Initial guess read from the read-write file.
 B after Tr=     0.000000    0.000000    0.000000
         Rot=    1.000000    0.000000    0.000000    0.000000 Ang=   0.00 deg.
 Initial guess orbital symmetries:
       Occupied  (SG) (SG) (SG) (PI) (PI) (SG) (SG) (PI) (PI)
       Virtual   (SG) (SG) (SG) (PI) (PI) (SG) (PI) (PI) (DLTA)
                 (DLTA) (SG) (PI) (PI) (SG) (SG) (PI) (PI) (SG)
                 (PI) (PI) (DLTA) (DLTA) (DLTA) (DLTA) (SG) (PI)
                 (PI) (SG) (PHI) (PHI) (PI) (PI) (SG) (DLTA) (DLTA)
                 (PI) (PI) (SG) (SG) (DLTA) (DLTA) (SG) (PI) (PI)
                 (PI) (PI) (SG) (PI) (PI) (PHI) (PHI) (DLTA) (DLTA)
                 (SG) (SG) (DLTA) (DLTA) (PI) (PI) (PI) (PI) (SG)
                 (SG) (SG)
 Requested convergence on RMS density matrix=1.00D-08 within 128 cycles.
 Requested convergence on MAX density matrix=1.00D-06.
 Requested convergence on             energy=1.00D-06.
 No special actions if energy rises.
 Keep J ints in memory in canonical form, NReq=8371914.
 SCF Done:  E(RS-VWN) =  -459.690809618     A.U. after    7 cycles
             Convg  =    0.9361D-09             -V/T =  2.0015
 Calling FoFJK, ICntrl=      2527 FMM=F ISym2X=1 I1Cent= 0 IOpClX= 0 NMat=1 NMatS=1 NMatT=0.
 ***** Axes restored to original set *****
 -------------------------------------------------------------------
 Center     Atomic                   Forces (Hartrees/Bohr)
 Number     Number              X              Y              Z
 -------------------------------------------------------------------
      1       17          -0.000006052    0.000000000    0.000000000
      2        1           0.000006052    0.000000000    0.000000000
 -------------------------------------------------------------------
 Cartesian Forces:  Max     0.000006052 RMS     0.000003494

 GradGradGradGradGradGradGradGradGradGradGradGradGradGradGradGradGradGrad
 Berny optimization.
 Using GEDIIS/GDIIS optimizer.
 Internal  Forces:  Max     0.000006052 RMS     0.000006052
 Search for a local minimum.
 Step number   2 out of a maximum of   20
 All quantities printed in internal units (Hartrees-Bohrs-Radians)
 Mixed Optimization -- En-DIIS/RFO-DIIS
 Update second derivatives using D2CorX and points    1    2
 DE= -2.39D-06 DEPred=-2.41D-06 R= 9.93D-01
 SS=  1.41D+00  RLast= 3.95D-03 DXNew= 5.0454D-01 1.1852D-02
 Trust test= 9.93D-01 RLast= 3.95D-03 DXMaxT set to 3.00D-01
 The second derivative matrix:
                          R1
           R1           0.31017
 ITU=  1  0
 Use linear search instead of GDIIS.
     Eigenvalues ---    0.31017
 RFO step:  Lambda= 0.00000000D+00 EMin= 3.10167692D-01
 Quartic linear search produced a step of -0.00497.
 Iteration  1 RMS(Cart)=  0.00001388 RMS(Int)=  0.00000000
 Iteration  2 RMS(Cart)=  0.00000000 RMS(Int)=  0.00000000
 ClnCor:  largest displacement from symmetrization is 0.00D+00 for atom     0.
 Variable       Old X    -DE/DX   Delta X   Delta X   Delta X     New X
                                 (Linear)    (Quad)   (Total)
    R1        2.44170  -0.00001  -0.00002   0.00000  -0.00002   2.44168
         Item               Value     Threshold  Converged?
 Maximum Force            0.000006     0.000450     YES
 RMS     Force            0.000006     0.000300     YES
 Maximum Displacement     0.000010     0.001800     YES
 RMS     Displacement     0.000014     0.001200     YES
 Predicted change in Energy=-5.905057D-11
 Optimization completed.
    -- Stationary point found.
                           ----------------------------
                           !   Optimized Parameters   !
                           ! (Angstroms and Degrees)  !
 --------------------------                            --------------------------
 ! Name  Definition              Value          Derivative Info.                !
 --------------------------------------------------------------------------------
 ! R1    R(1,2)                  1.2921         -DE/DX =    0.0                 !
 --------------------------------------------------------------------------------
 GradGradGradGradGradGradGradGradGradGradGradGradGradGradGradGradGradGrad

                          Input orientation:                          
 ---------------------------------------------------------------------
 Center     Atomic      Atomic             Coordinates (Angstroms)
 Number     Number       Type             X           Y           Z
 ---------------------------------------------------------------------
      1         17           0       -0.428495   -0.022321    0.011248
      2          1           0       -1.720586   -0.022321    0.011248
 ---------------------------------------------------------------------
 Stoichiometry    ClH
 Framework group  C*V[C*(HCl)]
 Deg. of freedom     1
 Full point group                 C*V     NOp   4
 Largest Abelian subgroup         C2V     NOp   4
 Largest concise Abelian subgroup C1      NOp   1
                         Standard orientation:                         
 ---------------------------------------------------------------------
 Center     Atomic      Atomic             Coordinates (Angstroms)
 Number     Number       Type             X           Y           Z
 ---------------------------------------------------------------------
      1         17           0        0.000000    0.000000    0.071783
      2          1           0        0.000000    0.000000   -1.220308
 ---------------------------------------------------------------------
 Rotational constants (GHZ):      0.0000000    309.0193905    309.0193905

 **********************************************************************

            Population analysis using the SCF density.

 **********************************************************************

 Orbital symmetries:
       Occupied  (SG) (SG) (SG) (PI) (PI) (SG) (SG) (PI) (PI)
       Virtual   (SG) (SG) (SG) (PI) (PI) (SG) (PI) (PI) (DLTA)
                 (DLTA) (SG) (PI) (PI) (SG) (SG) (PI) (PI) (SG)
                 (PI) (PI) (DLTA) (DLTA) (DLTA) (DLTA) (SG) (PI)
                 (PI) (SG) (PHI) (PHI) (PI) (PI) (SG) (DLTA) (DLTA)
                 (PI) (PI) (SG) (SG) (DLTA) (DLTA) (SG) (PI) (PI)
                 (PI) (PI) (SG) (PI) (PI) (PHI) (PHI) (DLTA) (DLTA)
                 (SG) (SG) (DLTA) (DLTA) (PI) (PI) (PI) (PI) (SG)
                 (SG) (SG)
 The electronic state is 1-SG.
 Alpha  occ. eigenvalues -- -100.36964  -9.17586  -7.03662  -7.02611  -7.02611
 Alpha  occ. eigenvalues --   -0.79218  -0.45035  -0.31684  -0.31684
 Alpha virt. eigenvalues --   -0.05965   0.01284   0.04190   0.04841   0.04841
 Alpha virt. eigenvalues --    0.09377   0.10996   0.10996   0.17812   0.17812
 Alpha virt. eigenvalues --    0.22840   0.28761   0.28761   0.30010   0.43136
 Alpha virt. eigenvalues --    0.43756   0.43756   0.48620   0.62604   0.62604
 Alpha virt. eigenvalues --    0.63866   0.63866   0.68346   0.68347   0.69716
 Alpha virt. eigenvalues --    0.75469   0.75469   0.85367   0.92236   0.92236
 Alpha virt. eigenvalues --    1.03756   1.03756   1.04710   1.11921   1.11921
 Alpha virt. eigenvalues --    1.47139   1.47139   1.48100   1.54099   2.06513
 Alpha virt. eigenvalues --    2.06513   2.07355   2.11356   2.11356   2.37411
 Alpha virt. eigenvalues --    2.37411   2.51021   2.59409   2.59409   2.62327
 Alpha virt. eigenvalues --    2.62327   2.63965   2.63966   2.85365   3.16060
 Alpha virt. eigenvalues --    3.52388   3.52388   3.98980   3.98980   4.04029
 Alpha virt. eigenvalues --    4.04029   4.28213   4.67015   6.83394
          Condensed to atoms (all electrons):
              1          2
     1  Cl  16.777185   0.343936
     2  H    0.343936   0.534942
 Mulliken atomic charges:
              1
     1  Cl  -0.121121
     2  H    0.121121
 Sum of Mulliken atomic charges =   0.00000
 Mulliken charges with hydrogens summed into heavy atoms:
              1
     1  Cl   0.000000
 Sum of Mulliken charges with hydrogens summed into heavy atoms =   0.00000
 Electronic spatial extent (au):  <R**2>=             34.4540
 Charge=              0.0000 electrons
 Dipole moment (field-independent basis, Debye):
    X=              0.0000    Y=              0.0000    Z=             -1.1509  Tot=              1.1509
 Quadrupole moment (field-independent basis, Debye-Ang):
   XX=            -14.1437   YY=            -14.1437   ZZ=            -10.4809
   XY=              0.0000   XZ=              0.0000   YZ=              0.0000
 Traceless Quadrupole moment (field-independent basis, Debye-Ang):
   XX=             -1.2209   YY=             -1.2209   ZZ=              2.4419
   XY=              0.0000   XZ=              0.0000   YZ=              0.0000
 Octapole moment (field-independent basis, Debye-Ang**2):
  XXX=              0.0000  YYY=              0.0000  ZZZ=             -2.6104  XYY=              0.0000
  XXY=              0.0000  XXZ=              0.0485  XZZ=              0.0000  YZZ=              0.0000
  YYZ=              0.0485  XYZ=              0.0000
 Hexadecapole moment (field-independent basis, Debye-Ang**3):
 XXXX=            -17.1758 YYYY=            -17.1758 ZZZZ=            -14.4878 XXXY=              0.0000
 XXXZ=              0.0000 YYYX=              0.0000 YYYZ=              0.0000 ZZZX=              0.0000
 ZZZY=              0.0000 XXYY=             -5.7253 XXZZ=             -6.1123 YYZZ=             -6.1123
 XXYZ=              0.0000 YYXZ=              0.0000 ZZXY=              0.0000
 N-N= 6.962369301972D+00 E-N=-1.108569597694D+03  KE= 4.589807208219D+02
 Symmetry A1   KE= 3.677894923735D+02
 Symmetry A2   KE=-1.784559702176D-52
 Symmetry B1   KE= 4.559561422420D+01
 Symmetry B2   KE= 4.559561422420D+01
 1\1\GINC-C01\FOpt\RSVWN\Aug-CC-pVTZ\Cl1H1\TUU61186\14-Apr-2026\0\\# op
 t freq svwn/aug-cc-pvtz\\Title Card Required\\0,1\Cl,-0.4284949057,-0.
 02232143,0.01124791\H,-1.7205855943,-0.02232143,0.01124791\\Version=EM
 64L-G09RevC.01\State=1-SG\HF=-459.6908096\RMSD=9.361e-10\RMSF=3.494e-0
 6\Dipole=-0.4527998,0.,0.\Quadrupole=1.8154705,-0.9077353,-0.9077353,0
 .,0.,0.\PG=C*V [C*(H1Cl1)]\\@


 THERE IS MUCH PLEASURE TO BE GAINED FROM USELESS KNOWLEDGE

                                       -- BERTRAND RUSSELL
 Job cpu time:  0 days  0 hours  0 minutes 50.2 seconds.
 File lengths (MBytes):  RWF=      5 Int=      0 D2E=      0 Chk=      1 Scr=      1
 Normal termination of Gaussian 09 at Tue Apr 14 21:42:22 2026.
 Link1:  Proceeding to internal job step number  2.
 ----------------------------------------------------------------------
 #N Geom=AllCheck Guess=TCheck SCRF=Check GenChk RSVWN/Aug-CC-pVTZ Freq
 ----------------------------------------------------------------------
 1/10=4,29=7,30=1,38=1,40=1/1,3;
 2/12=2,40=1/2;
 3/5=16,6=1,7=10,11=2,14=-4,16=1,25=1,30=1,70=2,71=2,74=205,116=1/1,2,3;
 4/5=101/1;
 5/5=2,98=1/2;
 8/6=4,10=90,11=11/1;
 11/6=1,8=1,9=11,15=111,16=1/1,2,10;
 10/6=1/2;
 6/7=2,8=2,9=2,10=2,18=1,28=1/1;
 7/8=1,10=1,25=1/1,2,3,16;
 1/10=4,30=1/3;
 99//99;
 Structure from the checkpoint file:  HCl_SVWN.chk
 -------------------
 Title Card Required
 -------------------
 Charge =  0 Multiplicity = 1
 Redundant internal coordinates found in file.
 Cl,0,-0.4284949057,-0.02232143,0.01124791
 H,0,-1.7205855943,-0.02232143,0.01124791
 Recover connectivity data from disk.

 GradGradGradGradGradGradGradGradGradGradGradGradGradGradGradGradGradGrad
 Berny optimization.
 Initialization pass.
                           ----------------------------
                           !    Initial Parameters    !
                           ! (Angstroms and Degrees)  !
 --------------------------                            --------------------------
 ! Name  Definition              Value          Derivative Info.                !
 --------------------------------------------------------------------------------
 ! R1    R(1,2)                  1.2921         calculate D2E/DX2 analytically  !
 --------------------------------------------------------------------------------
 Trust Radius=3.00D-01 FncErr=1.00D-07 GrdErr=1.00D-07
 Number of steps in this run=      2 maximum allowed number of steps=      2.
 GradGradGradGradGradGradGradGradGradGradGradGradGradGradGradGradGradGrad

                          Input orientation:                          
 ---------------------------------------------------------------------
 Center     Atomic      Atomic             Coordinates (Angstroms)
 Number     Number       Type             X           Y           Z
 ---------------------------------------------------------------------
      1         17           0       -0.428495   -0.022321    0.011248
      2          1           0       -1.720586   -0.022321    0.011248
 ---------------------------------------------------------------------
 Stoichiometry    ClH
 Framework group  C*V[C*(HCl)]
 Deg. of freedom     1
 Full point group                 C*V     NOp   4
 Largest Abelian subgroup         C2V     NOp   4
 Largest concise Abelian subgroup C1      NOp   1
                         Standard orientation:                         
 ---------------------------------------------------------------------
 Center     Atomic      Atomic             Coordinates (Angstroms)
 Number     Number       Type             X           Y           Z
 ---------------------------------------------------------------------
      1         17           0        0.000000    0.000000    0.071783
      2          1           0        0.000000    0.000000   -1.220308
 ---------------------------------------------------------------------
 Rotational constants (GHZ):      0.0000000    309.0193905    309.0193905
 Standard basis: Aug-CC-pVTZ (5D, 7F)
 There are    32 symmetry adapted basis functions of A1  symmetry.
 There are     7 symmetry adapted basis functions of A2  symmetry.
 There are    17 symmetry adapted basis functions of B1  symmetry.
 There are    17 symmetry adapted basis functions of B2  symmetry.
 Integral buffers will be    131072 words long.
 Raffenetti 2 integral format.
 Two-electron integral symmetry is turned on.
    73 basis functions,   141 primitive gaussians,    84 cartesian basis functions
     9 alpha electrons        9 beta electrons
       nuclear repulsion energy         6.9623693020 Hartrees.
 NAtoms=    2 NActive=    2 NUniq=    2 SFac= 1.00D+00 NAtFMM=   60 NAOKFM=F Big=F
 One-electron integrals computed using PRISM.
 NBasis=    73 RedAO= T  NBF=    32     7    17    17
 NBsUse=    73 1.00D-06 NBFU=    32     7    17    17
 Initial guess read from the checkpoint file:  HCl_SVWN.chk
 B after Tr=     0.000000    0.000000    0.000000
         Rot=    1.000000    0.000000    0.000000    0.000000 Ang=   0.00 deg.
 Initial guess orbital symmetries:
       Occupied  (SG) (SG) (SG) (PI) (PI) (SG) (SG) (PI) (PI)
       Virtual   (SG) (SG) (SG) (PI) (PI) (SG) (PI) (PI) (DLTA)
                 (DLTA) (SG) (PI) (PI) (SG) (SG) (PI) (PI) (SG)
                 (PI) (PI) (DLTA) (DLTA) (DLTA) (DLTA) (SG) (PI)
                 (PI) (SG) (PHI) (PHI) (PI) (PI) (SG) (DLTA) (DLTA)
                 (PI) (PI) (SG) (SG) (DLTA) (DLTA) (SG) (PI) (PI)
                 (PI) (PI) (SG) (PI) (PI) (PHI) (PHI) (DLTA) (DLTA)
                 (SG) (SG) (DLTA) (DLTA) (PI) (PI) (PI) (PI) (SG)
                 (SG) (SG)
 Requested convergence on RMS density matrix=1.00D-08 within 128 cycles.
 Requested convergence on MAX density matrix=1.00D-06.
 Requested convergence on             energy=1.00D-06.
 No special actions if energy rises.
 Keep J ints in memory in canonical form, NReq=8371914.
 SCF Done:  E(RS-VWN) =  -459.690809618     A.U. after    1 cycles
             Convg  =    0.4058D-10             -V/T =  2.0015
 Range of M.O.s used for correlation:     1    73
 NBasis=    73 NAE=     9 NBE=     9 NFC=     0 NFV=     0
 NROrb=     73 NOA=     9 NOB=     9 NVA=    64 NVB=    64

 **** Warning!!: The largest alpha MO coefficient is  0.14832065D+02

 Symmetrizing basis deriv contribution to polar:
 IMax=3 JMax=2 DiffMx= 0.00D+00
 G2DrvN: will do     3 centers at a time, making    1 passes doing MaxLOS=3.
 Calling FoFCou, ICntrl=  3507 FMM=F I1Cent=   0 AccDes= 0.00D+00.
 FoFDir/FoFCou used for L=0 through L=3.
 End of G2Drv Frequency-dependent properties file   721 does not exist.
 End of G2Drv Frequency-dependent properties file   722 does not exist.
          IDoAtm=11
          Differentiating once with respect to electric field.
                with respect to dipole field.
          Differentiating once with respect to nuclear coordinates.
          Keep J ints in memory in canonical form, NReq=8315605.
          There are     9 degrees of freedom in the 1st order CPHF.  IDoFFX=5.
      6 vectors produced by pass  0 Test12= 6.40D-15 1.11D-08 XBig12= 2.02D+01 3.06D+00.
 AX will form     6 AO Fock derivatives at one time.
      6 vectors produced by pass  1 Test12= 6.40D-15 1.11D-08 XBig12= 3.33D+00 5.82D-01.
      6 vectors produced by pass  2 Test12= 6.40D-15 1.11D-08 XBig12= 9.32D-02 7.98D-02.
      6 vectors produced by pass  3 Test12= 6.40D-15 1.11D-08 XBig12= 7.31D-04 7.98D-03.
      6 vectors produced by pass  4 Test12= 6.40D-15 1.11D-08 XBig12= 9.14D-07 2.96D-04.
      4 vectors produced by pass  5 Test12= 6.40D-15 1.11D-08 XBig12= 1.52D-09 1.30D-05.
      1 vectors produced by pass  6 Test12= 6.40D-15 1.11D-08 XBig12= 1.23D-12 3.73D-07.
 Inverted reduced A of dimension    35 with in-core refinement.
 Isotropic polarizability for W=    0.000000       18.03 Bohr**3.
 End of Minotr Frequency-dependent properties file   721 does not exist.
 End of Minotr Frequency-dependent properties file   722 does not exist.

 **********************************************************************

            Population analysis using the SCF density.

 **********************************************************************

 Orbital symmetries:
       Occupied  (SG) (SG) (SG) (PI) (PI) (SG) (SG) (PI) (PI)
       Virtual   (SG) (SG) (SG) (PI) (PI) (SG) (PI) (PI) (DLTA)
                 (DLTA) (SG) (PI) (PI) (SG) (SG) (PI) (PI) (SG)
                 (PI) (PI) (DLTA) (DLTA) (DLTA) (DLTA) (SG) (PI)
                 (PI) (SG) (PHI) (PHI) (PI) (PI) (SG) (DLTA) (DLTA)
                 (PI) (PI) (SG) (SG) (DLTA) (DLTA) (SG) (PI) (PI)
                 (PI) (PI) (SG) (PI) (PI) (PHI) (PHI) (DLTA) (DLTA)
                 (SG) (SG) (DLTA) (DLTA) (PI) (PI) (PI) (PI) (SG)
                 (SG) (SG)
 The electronic state is 1-SG.
 Alpha  occ. eigenvalues -- -100.36964  -9.17586  -7.03662  -7.02611  -7.02611
 Alpha  occ. eigenvalues --   -0.79218  -0.45035  -0.31684  -0.31684
 Alpha virt. eigenvalues --   -0.05965   0.01284   0.04190   0.04841   0.04841
 Alpha virt. eigenvalues --    0.09377   0.10996   0.10996   0.17812   0.17812
 Alpha virt. eigenvalues --    0.22840   0.28761   0.28761   0.30010   0.43136
 Alpha virt. eigenvalues --    0.43756   0.43756   0.48620   0.62604   0.62604
 Alpha virt. eigenvalues --    0.63866   0.63866   0.68346   0.68347   0.69716
 Alpha virt. eigenvalues --    0.75469   0.75469   0.85367   0.92236   0.92236
 Alpha virt. eigenvalues --    1.03756   1.03756   1.04710   1.11921   1.11921
 Alpha virt. eigenvalues --    1.47139   1.47139   1.48100   1.54099   2.06513
 Alpha virt. eigenvalues --    2.06513   2.07355   2.11356   2.11356   2.37411
 Alpha virt. eigenvalues --    2.37411   2.51021   2.59409   2.59409   2.62327
 Alpha virt. eigenvalues --    2.62327   2.63965   2.63966   2.85365   3.16060
 Alpha virt. eigenvalues --    3.52388   3.52388   3.98980   3.98980   4.04029
 Alpha virt. eigenvalues --    4.04029   4.28213   4.67015   6.83394
          Condensed to atoms (all electrons):
              1          2
     1  Cl  16.777185   0.343936
     2  H    0.343936   0.534942
 Mulliken atomic charges:
              1
     1  Cl  -0.121121
     2  H    0.121121
 Sum of Mulliken atomic charges =   0.00000
 Mulliken charges with hydrogens summed into heavy atoms:
              1
     1  Cl   0.000000
 Sum of Mulliken charges with hydrogens summed into heavy atoms =   0.00000
 APT atomic charges:
              1
     1  Cl  -0.199833
     2  H    0.199833
 Sum of APT charges=   0.00000
 APT Atomic charges with hydrogens summed into heavy atoms:
              1
     1  Cl   0.000000
     2  H    0.000000
 Sum of APT charges=   0.00000
 Electronic spatial extent (au):  <R**2>=             34.4540
 Charge=              0.0000 electrons
 Dipole moment (field-independent basis, Debye):
    X=              0.0000    Y=              0.0000    Z=             -1.1509  Tot=              1.1509
 Quadrupole moment (field-independent basis, Debye-Ang):
   XX=            -14.1437   YY=            -14.1437   ZZ=            -10.4809
   XY=              0.0000   XZ=              0.0000   YZ=              0.0000
 Traceless Quadrupole moment (field-independent basis, Debye-Ang):
   XX=             -1.2209   YY=             -1.2209   ZZ=              2.4419
   XY=              0.0000   XZ=              0.0000   YZ=              0.0000
 Octapole moment (field-independent basis, Debye-Ang**2):
  XXX=              0.0000  YYY=              0.0000  ZZZ=             -2.6104  XYY=              0.0000
  XXY=              0.0000  XXZ=              0.0485  XZZ=              0.0000  YZZ=              0.0000
  YYZ=              0.0485  XYZ=              0.0000
 Hexadecapole moment (field-independent basis, Debye-Ang**3):
 XXXX=            -17.1758 YYYY=            -17.1758 ZZZZ=            -14.4878 XXXY=              0.0000
 XXXZ=              0.0000 YYYX=              0.0000 YYYZ=              0.0000 ZZZX=              0.0000
 ZZZY=              0.0000 XXYY=             -5.7253 XXZZ=             -6.1123 YYZZ=             -6.1123
 XXYZ=              0.0000 YYXZ=              0.0000 ZZXY=              0.0000
 N-N= 6.962369301972D+00 E-N=-1.108569597637D+03  KE= 4.589807207998D+02
 Symmetry A1   KE= 3.677894923612D+02
 Symmetry A2   KE= 1.497279075147D-51
 Symmetry B1   KE= 4.559561421926D+01
 Symmetry B2   KE= 4.559561421926D+01
  Exact polarizability:  17.443   0.000  17.443   0.000   0.000  19.191
 Approx polarizability:  25.897   0.000  25.897   0.000   0.000  34.612
 Calling FoFJK, ICntrl=    100527 FMM=F ISym2X=1 I1Cent= 0 IOpClX= 0 NMat=1 NMatS=1 NMatT=0.
 Full mass-weighted force constant matrix:
 Low frequencies ---  -69.1113  -69.1113   -0.0073   -0.0046   -0.0045 2884.2335
 Harmonic frequencies (cm**-1), IR intensities (KM/Mole), Raman scattering
 activities (A**4/AMU), depolarization ratios for plane and unpolarized
 incident light, reduced masses (AMU), force constants (mDyne/A),
 and normal coordinates:
                     1
                    SG
 Frequencies --  2884.2335
 Red. masses --     1.0360
 Frc consts  --     5.0778
 IR Inten    --    51.9714
  Atom  AN      X      Y      Z
     1  17     0.00   0.00   0.03
     2   1     0.00   0.00  -1.00

 -------------------
 - Thermochemistry -
 -------------------
 Temperature   298.150 Kelvin.  Pressure   1.00000 Atm.
 Atom     1 has atomic number 17 and mass  34.96885
 Atom     2 has atomic number  1 and mass   1.00783
 Molecular mass:    35.97668 amu.
 Principal axes and moments of inertia in atomic units:
                           1         2         3
     Eigenvalues --     0.00000   5.84022   5.84022
           X            0.00000   0.00000   1.00000
           Y            0.00000   1.00000   0.00000
           Z            1.00000   0.00000   0.00000
 This molecule is a prolate symmetric top.
 Rotational symmetry number  1.
 Rotational temperature (Kelvin)     14.83057
 Rotational constant (GHZ):         309.019390
 Zero-point vibrational energy      17251.5 (Joules/Mol)
                                    4.12322 (Kcal/Mol)
 Vibrational temperatures:   4149.76
          (Kelvin)
 
 Zero-point correction=                           0.006571 (Hartree/Particle)
 Thermal correction to Energy=                    0.008931
 Thermal correction to Enthalpy=                  0.009875
 Thermal correction to Gibbs Free Energy=        -0.011326
 Sum of electronic and zero-point Energies=           -459.684239
 Sum of electronic and thermal Energies=              -459.681878
 Sum of electronic and thermal Enthalpies=            -459.680934
 Sum of electronic and thermal Free Energies=         -459.702135
 
                     E (Thermal)             CV                S
                      KCal/Mol        Cal/Mol-Kelvin    Cal/Mol-Kelvin
 Total                    5.604              4.968             44.621
 Electronic               0.000              0.000              0.000
 Translational            0.889              2.981             36.671
 Rotational               0.592              1.987              7.951
 Vibrational              4.123              0.000              0.000
                       Q            Log10(Q)             Ln(Q)
 Total Bot       0.161967D+06          5.209427         11.995150
 Total V=0       0.170516D+09          8.231764         18.954337
 Vib (Bot)       0.949869D-03         -3.022336         -6.959187
 Vib (V=0)       0.100000D+01          0.000000          0.000001
 Electronic      0.100000D+01          0.000000          0.000000
 Translational   0.848178D+07          6.928487         15.953430
 Rotational      0.201037D+02          1.303277          3.000906
 ***** Axes restored to original set *****
 -------------------------------------------------------------------
 Center     Atomic                   Forces (Hartrees/Bohr)
 Number     Number              X              Y              Z
 -------------------------------------------------------------------
      1       17          -0.000006053    0.000000000    0.000000000
      2        1           0.000006053    0.000000000    0.000000000
 -------------------------------------------------------------------
 Cartesian Forces:  Max     0.000006053 RMS     0.000003495

 GradGradGradGradGradGradGradGradGradGradGradGradGradGradGradGradGradGrad
 Berny optimization.
 Internal  Forces:  Max     0.000006053 RMS     0.000006053
 Search for a local minimum.
 Step number   1 out of a maximum of    2
 All quantities printed in internal units (Hartrees-Bohrs-Radians)
 Second derivative matrix not updated -- analytic derivatives used.
 The second derivative matrix:
                          R1
           R1           0.30839
 ITU=  0
     Eigenvalues ---    0.30839
 Angle between quadratic step and forces=   0.00 degrees.
 Linear search not attempted -- first point.
 Iteration  1 RMS(Cart)=  0.00001388 RMS(Int)=  0.00000000
 Iteration  2 RMS(Cart)=  0.00000000 RMS(Int)=  0.00000000
 ClnCor:  largest displacement from symmetrization is 0.00D+00 for atom     0.
 Variable       Old X    -DE/DX   Delta X   Delta X   Delta X     New X
                                 (Linear)    (Quad)   (Total)
    R1        2.44170  -0.00001   0.00000  -0.00002  -0.00002   2.44168
         Item               Value     Threshold  Converged?
 Maximum Force            0.000006     0.000450     YES
 RMS     Force            0.000006     0.000300     YES
 Maximum Displacement     0.000010     0.001800     YES
 RMS     Displacement     0.000014     0.001200     YES
 Predicted change in Energy=-5.940957D-11
 Optimization completed.
    -- Stationary point found.
                           ----------------------------
                           !   Optimized Parameters   !
                           ! (Angstroms and Degrees)  !
 --------------------------                            --------------------------
 ! Name  Definition              Value          Derivative Info.                !
 --------------------------------------------------------------------------------
 ! R1    R(1,2)                  1.2921         -DE/DX =    0.0                 !
 --------------------------------------------------------------------------------
 GradGradGradGradGradGradGradGradGradGradGradGradGradGradGradGradGradGrad

 1\1\GINC-C01\Freq\RSVWN\Aug-CC-pVTZ\Cl1H1\TUU61186\14-Apr-2026\0\\#N G
 eom=AllCheck Guess=TCheck SCRF=Check GenChk RSVWN/Aug-CC-pVTZ Freq\\Ti
 tle Card Required\\0,1\Cl,-0.4284949057,-0.02232143,0.01124791\H,-1.72
 05855943,-0.02232143,0.01124791\\Version=EM64L-G09RevC.01\State=1-SG\H
 F=-459.6908096\RMSD=4.058e-11\RMSF=3.495e-06\ZeroPoint=0.0065708\Therm
 al=0.0089312\Dipole=-0.4527998,0.,0.\DipoleDeriv=-0.2285227,0.,0.,0.,-
 0.1854878,0.,0.,0.,-0.1854878,0.2285227,0.,0.,0.,0.1854878,0.,0.,0.,0.
 1854878\Polar=19.1914226,0.,17.4426149,0.,0.,17.4426149\PG=C*V [C*(H1C
 l1)]\NImag=0\\0.30838819,0.,-0.00017707,0.,0.,-0.00017707,-0.30838819,
 0.,0.,0.30838819,0.,0.00017707,0.,0.,-0.00017707,0.,0.,0.00017707,0.,0
 .,-0.00017707\\0.00000605,0.,0.,-0.00000605,0.,0.\\\@


 CHARLIE BROWN -- WHICH DO YOU THINK LASTS LONGER IN LIFE, THE GOOD THINGS 
                  OR THE BAD THINGS?
 LINUS --         GOOD THINGS LAST EIGHT SECONDS ..
                  BAD THINGS LAST THREE WEEKS
 CHARLIE BROWN -- WHAT ABOUT IN BETWEEN?
 SNOOPY --        IN BETWEEN YOU SHOULD TAKE A NAP ...
 Job cpu time:  0 days  0 hours  0 minutes 25.4 seconds.
 File lengths (MBytes):  RWF=      5 Int=      0 D2E=      0 Chk=      1 Scr=      1
 Normal termination of Gaussian 09 at Tue Apr 14 21:42:29 2026.
