 Entering Gaussian System, Link 0=/data/opt/apps/g09-C01/g09
 Initial command:
 /data/opt/apps/g09-C01/l1.exe /tmp/g09-tuu61186-1341587fea2dfb32ex/Gau-1341637.inp -scrdir=/tmp/g09-tuu61186-1341587fea2dfb32ex/
 Entering Link 1 = /data/opt/apps/g09-C01/l1.exe PID=   1341640.
  
 Copyright (c) 1988,1990,1992,1993,1995,1998,2003,2009,2011,
            Gaussian, Inc.  All Rights Reserved.
  
 This is part of the Gaussian(R) 09 program.  It is based on
 the Gaussian(R) 03 system (copyright 2003, Gaussian, Inc.),
 the Gaussian(R) 98 system (copyright 1998, Gaussian, Inc.),
 the Gaussian(R) 94 system (copyright 1995, Gaussian, Inc.),
 the Gaussian 92(TM) system (copyright 1992, Gaussian, Inc.),
 the Gaussian 90(TM) system (copyright 1990, Gaussian, Inc.),
 the Gaussian 88(TM) system (copyright 1988, Gaussian, Inc.),
 the Gaussian 86(TM) system (copyright 1986, Carnegie Mellon
 University), and the Gaussian 82(TM) system (copyright 1983,
 Carnegie Mellon University). Gaussian is a federally registered
 trademark of Gaussian, Inc.
  
 This software contains proprietary and confidential information,
 including trade secrets, belonging to Gaussian, Inc.
  
 This software is provided under written license and may be
 used, copied, transmitted, or stored only in accord with that
 written license.
  
 The following legend is applicable only to US Government
 contracts under FAR:
  
                    RESTRICTED RIGHTS LEGEND
  
 Use, reproduction and disclosure by the US Government is
 subject to restrictions as set forth in subparagraphs (a)
 and (c) of the Commercial Computer Software - Restricted
 Rights clause in FAR 52.227-19.
  
 Gaussian, Inc.
 340 Quinnipiac St., Bldg. 40, Wallingford CT 06492
  
  
 ---------------------------------------------------------------
 Warning -- This program may not be used in any manner that
 competes with the business of Gaussian, Inc. or will provide
 assistance to any competitor of Gaussian, Inc.  The licensee
 of this program is prohibited from giving any competitor of
 Gaussian, Inc. access to this program.  By using this program,
 the user acknowledges that Gaussian, Inc. is engaged in the
 business of creating and licensing software in the field of
 computational chemistry and represents and warrants to the
 licensee that it is not a competitor of Gaussian, Inc. and that
 it will not use this program in any manner prohibited above.
 ---------------------------------------------------------------
  

 Cite this work as:
 Gaussian 09, Revision C.01,
 M. J. Frisch, G. W. Trucks, H. B. Schlegel, G. E. Scuseria, 
 M. A. Robb, J. R. Cheeseman, G. Scalmani, V. Barone, B. Mennucci, 
 G. A. Petersson, H. Nakatsuji, M. Caricato, X. Li, H. P. Hratchian, 
 A. F. Izmaylov, J. Bloino, G. Zheng, J. L. Sonnenberg, M. Hada, 
 M. Ehara, K. Toyota, R. Fukuda, J. Hasegawa, M. Ishida, T. Nakajima, 
 Y. Honda, O. Kitao, H. Nakai, T. Vreven, J. A. Montgomery, Jr., 
 J. E. Peralta, F. Ogliaro, M. Bearpark, J. J. Heyd, E. Brothers, 
 K. N. Kudin, V. N. Staroverov, T. Keith, R. Kobayashi, J. Normand, 
 K. Raghavachari, A. Rendell, J. C. Burant, S. S. Iyengar, J. Tomasi, 
 M. Cossi, N. Rega, J. M. Millam, M. Klene, J. E. Knox, J. B. Cross, 
 V. Bakken, C. Adamo, J. Jaramillo, R. Gomperts, R. E. Stratmann, 
 O. Yazyev, A. J. Austin, R. Cammi, C. Pomelli, J. W. Ochterski, 
 R. L. Martin, K. Morokuma, V. G. Zakrzewski, G. A. Voth, 
 P. Salvador, J. J. Dannenberg, S. Dapprich, A. D. Daniels, 
 O. Farkas, J. B. Foresman, J. V. Ortiz, J. Cioslowski, 
 and D. J. Fox, Gaussian, Inc., Wallingford CT, 2010.
 
 ******************************************
 Gaussian 09:  EM64L-G09RevC.01 23-Sep-2011
                14-Apr-2026 
 ******************************************
 %mem=1GB
 %nprocshared=6
 Will use up to    6 processors via shared memory.
 %chk=HCl_B3LYP.chk
 ----------------------------
 # opt freq b3lyp/aug-cc-pvtz
 ----------------------------
 1/14=-1,18=20,19=15,26=3,38=1/1,3;
 2/9=110,12=2,17=6,18=5,40=1/2;
 3/5=16,6=1,7=10,11=2,16=1,25=1,30=1,71=1,74=-5/1,2,3;
 4//1;
 5/5=2,38=5/2;
 6/7=2,8=2,9=2,10=2,28=1/1;
 7//1,2,3,16;
 1/14=-1,18=20,19=15/3(2);
 2/9=110/2;
 99//99;
 2/9=110/2;
 3/5=16,6=1,7=10,11=2,16=1,25=1,30=1,71=1,74=-5/1,2,3;
 4/5=5,16=3/1;
 5/5=2,38=5/2;
 7//1,2,3,16;
 1/14=-1,18=20,19=15/3(-5);
 2/9=110/2;
 6/7=2,8=2,9=2,10=2,19=2,28=1/1;
 99/9=1/99;
 -------------------
 Title Card Required
 -------------------
 Charge =  0 Multiplicity = 1
 Symbolic Z-Matrix:
 Cl                   -0.42954  -0.02232   0.01125 
 H                    -1.71954  -0.02232   0.01125 
 

 GradGradGradGradGradGradGradGradGradGradGradGradGradGradGradGradGradGrad
 Berny optimization.
 Initialization pass.
                           ----------------------------
                           !    Initial Parameters    !
                           ! (Angstroms and Degrees)  !
 --------------------------                            --------------------------
 ! Name  Definition              Value          Derivative Info.                !
 --------------------------------------------------------------------------------
 ! R1    R(1,2)                  1.29           estimate D2E/DX2                !
 --------------------------------------------------------------------------------
 Trust Radius=3.00D-01 FncErr=1.00D-07 GrdErr=1.00D-06
 Number of steps in this run=     20 maximum allowed number of steps=    100.
 GradGradGradGradGradGradGradGradGradGradGradGradGradGradGradGradGradGrad

                          Input orientation:                          
 ---------------------------------------------------------------------
 Center     Atomic      Atomic             Coordinates (Angstroms)
 Number     Number       Type             X           Y           Z
 ---------------------------------------------------------------------
      1         17           0       -0.429540   -0.022321    0.011248
      2          1           0       -1.719540   -0.022321    0.011248
 ---------------------------------------------------------------------
 Stoichiometry    ClH
 Framework group  C*V[C*(HCl)]
 Deg. of freedom     1
 Full point group                 C*V     NOp   4
 Largest Abelian subgroup         C2V     NOp   4
 Largest concise Abelian subgroup C1      NOp   1
                         Standard orientation:                         
 ---------------------------------------------------------------------
 Center     Atomic      Atomic             Coordinates (Angstroms)
 Number     Number       Type             X           Y           Z
 ---------------------------------------------------------------------
      1         17           0        0.000000    0.000000    0.071667
      2          1           0        0.000000    0.000000   -1.218333
 ---------------------------------------------------------------------
 Rotational constants (GHZ):      0.0000000    310.0218507    310.0218507
 Standard basis: Aug-CC-pVTZ (5D, 7F)
 There are    32 symmetry adapted basis functions of A1  symmetry.
 There are     7 symmetry adapted basis functions of A2  symmetry.
 There are    17 symmetry adapted basis functions of B1  symmetry.
 There are    17 symmetry adapted basis functions of B2  symmetry.
 Integral buffers will be    131072 words long.
 Raffenetti 2 integral format.
 Two-electron integral symmetry is turned on.
    73 basis functions,   141 primitive gaussians,    84 cartesian basis functions
     9 alpha electrons        9 beta electrons
       nuclear repulsion energy         6.9736531365 Hartrees.
 NAtoms=    2 NActive=    2 NUniq=    2 SFac= 1.00D+00 NAtFMM=   60 NAOKFM=F Big=F
 One-electron integrals computed using PRISM.
 NBasis=    73 RedAO= T  NBF=    32     7    17    17
 NBsUse=    73 1.00D-06 NBFU=    32     7    17    17
 Harris functional with IExCor=  402 diagonalized for initial guess.
 ExpMin= 2.53D-02 ExpMax= 4.56D+05 ExpMxC= 1.44D+03 IAcc=3 IRadAn=         5 AccDes= 0.00D+00
 HarFok:  IExCor=  402 AccDes= 0.00D+00 IRadAn=         5 IDoV= 1
 ScaDFX=  1.000000  1.000000  1.000000  1.000000
 FoFCou: FMM=F IPFlag=           0 FMFlag=      100000 FMFlg1=           0
         NFxFlg=           0 DoJE=T BraDBF=F KetDBF=T FulRan=T
         Omega=  0.000000  0.000000  1.000000  0.000000  0.000000 ICntrl=     500 IOpCl=  0
         NMat0=    1 NMatS0=    1 NMatT0=    0 NMatD0=    1 NMtDS0=    0 NMtDT0=    0
         I1Cent=           4 NGrid=           0.
 Petite list used in FoFCou.
 Initial guess orbital symmetries:
       Occupied  (SG) (SG) (SG) (PI) (PI) (SG) (SG) (PI) (PI)
       Virtual   (SG) (SG) (SG) (PI) (PI) (SG) (PI) (PI) (DLTA)
                 (DLTA) (SG) (PI) (PI) (SG) (SG) (PI) (PI) (SG)
                 (PI) (PI) (DLTA) (DLTA) (DLTA) (DLTA) (SG) (PI)
                 (PI) (SG) (PHI) (PHI) (PI) (PI) (SG) (DLTA) (DLTA)
                 (SG) (PI) (PI) (SG) (DLTA) (DLTA) (SG) (PI) (PI)
                 (PI) (PI) (SG) (PI) (PI) (PHI) (PHI) (DLTA) (DLTA)
                 (SG) (SG) (DLTA) (DLTA) (PI) (PI) (PI) (PI) (SG)
                 (SG) (SG)
 The electronic state of the initial guess is 1-SG.
 Requested convergence on RMS density matrix=1.00D-08 within 128 cycles.
 Requested convergence on MAX density matrix=1.00D-06.
 Requested convergence on             energy=1.00D-06.
 No special actions if energy rises.
 Keep R1 ints in memory in canonical form, NReq=8371914.
 SCF Done:  E(RB3LYP) =  -460.844241124     A.U. after    8 cycles
             Convg  =    0.1058D-08             -V/T =  2.0028

 **********************************************************************

            Population analysis using the SCF density.

 **********************************************************************

 Orbital symmetries:
       Occupied  (SG) (SG) (SG) (PI) (PI) (SG) (SG) (PI) (PI)
       Virtual   (SG) (SG) (SG) (PI) (PI) (SG) (PI) (PI) (DLTA)
                 (DLTA) (SG) (PI) (PI) (SG) (SG) (PI) (PI) (SG)
                 (PI) (PI) (DLTA) (DLTA) (DLTA) (DLTA) (SG) (PI)
                 (PI) (SG) (PHI) (PHI) (PI) (PI) (SG) (DLTA) (DLTA)
                 (PI) (PI) (SG) (SG) (DLTA) (DLTA) (SG) (PI) (PI)
                 (PI) (PI) (SG) (PI) (PI) (PHI) (PHI) (DLTA) (DLTA)
                 (SG) (SG) (DLTA) (DLTA) (PI) (PI) (PI) (PI) (SG)
                 (SG) (SG)
 The electronic state is 1-SG.
 Alpha  occ. eigenvalues -- -101.57361  -9.47903  -7.24192  -7.23324  -7.23324
 Alpha  occ. eigenvalues --   -0.85019  -0.47729  -0.33913  -0.33913
 Alpha virt. eigenvalues --   -0.02887   0.03913   0.05483   0.06240   0.06240
 Alpha virt. eigenvalues --    0.11117   0.14415   0.14415   0.22172   0.22172
 Alpha virt. eigenvalues --    0.25074   0.32113   0.32113   0.32957   0.47090
 Alpha virt. eigenvalues --    0.48234   0.48234   0.52774   0.68101   0.68101
 Alpha virt. eigenvalues --    0.69524   0.69524   0.73893   0.73893   0.75047
 Alpha virt. eigenvalues --    0.80282   0.80282   0.90294   0.98846   0.98846
 Alpha virt. eigenvalues --    1.09768   1.09768   1.10743   1.18062   1.18063
 Alpha virt. eigenvalues --    1.53853   1.53853   1.54692   1.60726   2.16796
 Alpha virt. eigenvalues --    2.16797   2.16894   2.21652   2.21652   2.47965
 Alpha virt. eigenvalues --    2.47965   2.59434   2.68881   2.68881   2.71601
 Alpha virt. eigenvalues --    2.71601   2.73240   2.73241   2.94292   3.26101
 Alpha virt. eigenvalues --    3.61330   3.61330   4.07642   4.07642   4.13671
 Alpha virt. eigenvalues --    4.13671   4.37558   4.76472   6.96755
          Condensed to atoms (all electrons):
              1          2
     1  Cl  16.788405   0.355792
     2  H    0.355792   0.500012
 Mulliken atomic charges:
              1
     1  Cl  -0.144196
     2  H    0.144196
 Sum of Mulliken atomic charges =   0.00000
 Mulliken charges with hydrogens summed into heavy atoms:
              1
     1  Cl   0.000000
 Sum of Mulliken charges with hydrogens summed into heavy atoms =   0.00000
 Electronic spatial extent (au):  <R**2>=             34.4345
 Charge=              0.0000 electrons
 Dipole moment (field-independent basis, Debye):
    X=              0.0000    Y=              0.0000    Z=             -1.1218  Tot=              1.1218
 Quadrupole moment (field-independent basis, Debye-Ang):
   XX=            -14.1217   YY=            -14.1217   ZZ=            -10.5232
   XY=              0.0000   XZ=              0.0000   YZ=              0.0000
 Traceless Quadrupole moment (field-independent basis, Debye-Ang):
   XX=             -1.1995   YY=             -1.1995   ZZ=              2.3990
   XY=              0.0000   XZ=              0.0000   YZ=              0.0000
 Octapole moment (field-independent basis, Debye-Ang**2):
  XXX=              0.0000  YYY=              0.0000  ZZZ=             -2.4592  XYY=              0.0000
  XXY=              0.0000  XXZ=             -0.0069  XZZ=              0.0000  YZZ=              0.0000
  YYZ=             -0.0069  XYZ=              0.0000
 Hexadecapole moment (field-independent basis, Debye-Ang**3):
 XXXX=            -17.1860 YYYY=            -17.1860 ZZZZ=            -14.6589 XXXY=              0.0000
 XXXZ=              0.0000 YYYX=              0.0000 YYYZ=              0.0000 ZZZX=              0.0000
 ZZZY=              0.0000 XXYY=             -5.7287 XXZZ=             -6.0965 YYZZ=             -6.0965
 XXYZ=              0.0000 YYXZ=              0.0000 ZZXY=              0.0000
 N-N= 6.973653136457D+00 E-N=-1.109295519828D+03  KE= 4.595552574562D+02
 Symmetry A1   KE= 3.681859744863D+02
 Symmetry A2   KE= 4.097543420418D-36
 Symmetry B1   KE= 4.568464148495D+01
 Symmetry B2   KE= 4.568464148495D+01
 Calling FoFJK, ICntrl=      2127 FMM=F ISym2X=1 I1Cent= 0 IOpClX= 0 NMat=1 NMatS=1 NMatT=0.
 ***** Axes restored to original set *****
 -------------------------------------------------------------------
 Center     Atomic                   Forces (Hartrees/Bohr)
 Number     Number              X              Y              Z
 -------------------------------------------------------------------
      1       17          -0.003795792    0.000000000    0.000000000
      2        1           0.003795792    0.000000000    0.000000000
 -------------------------------------------------------------------
 Cartesian Forces:  Max     0.003795792 RMS     0.002191501

 GradGradGradGradGradGradGradGradGradGradGradGradGradGradGradGradGradGrad
 Berny optimization.
 Internal  Forces:  Max     0.003795792 RMS     0.003795792
 Search for a local minimum.
 Step number   1 out of a maximum of   20
 All quantities printed in internal units (Hartrees-Bohrs-Radians)
 Mixed Optimization -- RFO/linear search
 Second derivative matrix not updated -- first step.
 The second derivative matrix:
                          R1
           R1           0.30863
 ITU=  0
     Eigenvalues ---    0.30863
 RFO step:  Lambda=-4.66766467D-05 EMin= 3.08630926D-01
 Linear search not attempted -- first point.
 Iteration  1 RMS(Cart)=  0.00869525 RMS(Int)=  0.00000000
 Iteration  2 RMS(Cart)=  0.00000000 RMS(Int)=  0.00000000
 ClnCor:  largest displacement from symmetrization is 0.00D+00 for atom     0.
 Variable       Old X    -DE/DX   Delta X   Delta X   Delta X     New X
                                 (Linear)    (Quad)   (Total)
    R1        2.43775  -0.00380   0.00000  -0.01230  -0.01230   2.42545
         Item               Value     Threshold  Converged?
 Maximum Force            0.003796     0.000450     NO 
 RMS     Force            0.003796     0.000300     NO 
 Maximum Displacement     0.006148     0.001800     NO 
 RMS     Displacement     0.008695     0.001200     NO 
 Predicted change in Energy=-2.334185D-05
 GradGradGradGradGradGradGradGradGradGradGradGradGradGradGradGradGradGrad

                          Input orientation:                          
 ---------------------------------------------------------------------
 Center     Atomic      Atomic             Coordinates (Angstroms)
 Number     Number       Type             X           Y           Z
 ---------------------------------------------------------------------
      1         17           0       -0.432794   -0.022321    0.011248
      2          1           0       -1.716287   -0.022321    0.011248
 ---------------------------------------------------------------------
 Stoichiometry    ClH
 Framework group  C*V[C*(HCl)]
 Deg. of freedom     1
 Full point group                 C*V     NOp   4
 Largest Abelian subgroup         C2V     NOp   4
 Largest concise Abelian subgroup C1      NOp   1
                         Standard orientation:                         
 ---------------------------------------------------------------------
 Center     Atomic      Atomic             Coordinates (Angstroms)
 Number     Number       Type             X           Y           Z
 ---------------------------------------------------------------------
      1         17           0        0.000000    0.000000    0.071305
      2          1           0        0.000000    0.000000   -1.212188
 ---------------------------------------------------------------------
 Rotational constants (GHZ):      0.0000000    313.1734197    313.1734197
 Standard basis: Aug-CC-pVTZ (5D, 7F)
 There are    32 symmetry adapted basis functions of A1  symmetry.
 There are     7 symmetry adapted basis functions of A2  symmetry.
 There are    17 symmetry adapted basis functions of B1  symmetry.
 There are    17 symmetry adapted basis functions of B2  symmetry.
 Integral buffers will be    131072 words long.
 Raffenetti 2 integral format.
 Two-electron integral symmetry is turned on.
    73 basis functions,   141 primitive gaussians,    84 cartesian basis functions
     9 alpha electrons        9 beta electrons
       nuclear repulsion energy         7.0090093154 Hartrees.
 NAtoms=    2 NActive=    2 NUniq=    2 SFac= 1.00D+00 NAtFMM=   60 NAOKFM=F Big=F
 One-electron integrals computed using PRISM.
 NBasis=    73 RedAO= T  NBF=    32     7    17    17
 NBsUse=    73 1.00D-06 NBFU=    32     7    17    17
 Initial guess read from the read-write file.
 B after Tr=     0.000000    0.000000    0.000000
         Rot=    1.000000    0.000000    0.000000    0.000000 Ang=   0.00 deg.
 Initial guess orbital symmetries:
       Occupied  (SG) (SG) (SG) (PI) (PI) (SG) (SG) (PI) (PI)
       Virtual   (SG) (SG) (SG) (PI) (PI) (SG) (PI) (PI) (DLTA)
                 (DLTA) (SG) (PI) (PI) (SG) (SG) (PI) (PI) (SG)
                 (PI) (PI) (DLTA) (DLTA) (DLTA) (DLTA) (SG) (PI)
                 (PI) (SG) (PHI) (PHI) (PI) (PI) (SG) (DLTA) (DLTA)
                 (PI) (PI) (SG) (SG) (DLTA) (DLTA) (SG) (PI) (PI)
                 (PI) (PI) (SG) (PI) (PI) (PHI) (PHI) (DLTA) (DLTA)
                 (SG) (SG) (DLTA) (DLTA) (PI) (PI) (PI) (PI) (SG)
                 (SG) (SG)
 Requested convergence on RMS density matrix=1.00D-08 within 128 cycles.
 Requested convergence on MAX density matrix=1.00D-06.
 Requested convergence on             energy=1.00D-06.
 No special actions if energy rises.
 Keep R1 ints in memory in canonical form, NReq=8371914.
 SCF Done:  E(RB3LYP) =  -460.844264206     A.U. after    7 cycles
             Convg  =    0.2018D-08             -V/T =  2.0028
 Calling FoFJK, ICntrl=      2127 FMM=F ISym2X=1 I1Cent= 0 IOpClX= 0 NMat=1 NMatS=1 NMatT=0.
 ***** Axes restored to original set *****
 -------------------------------------------------------------------
 Center     Atomic                   Forces (Hartrees/Bohr)
 Number     Number              X              Y              Z
 -------------------------------------------------------------------
      1       17           0.000065042    0.000000000    0.000000000
      2        1          -0.000065042    0.000000000    0.000000000
 -------------------------------------------------------------------
 Cartesian Forces:  Max     0.000065042 RMS     0.000037552

 GradGradGradGradGradGradGradGradGradGradGradGradGradGradGradGradGradGrad
 Berny optimization.
 Using GEDIIS/GDIIS optimizer.
 Internal  Forces:  Max     0.000065042 RMS     0.000065042
 Search for a local minimum.
 Step number   2 out of a maximum of   20
 All quantities printed in internal units (Hartrees-Bohrs-Radians)
 Mixed Optimization -- En-DIIS/RFO-DIIS
 Update second derivatives using D2CorX and points    1    2
 DE= -2.31D-05 DEPred=-2.33D-05 R= 9.89D-01
 SS=  1.41D+00  RLast= 1.23D-02 DXNew= 5.0454D-01 3.6891D-02
 Trust test= 9.89D-01 RLast= 1.23D-02 DXMaxT set to 3.00D-01
 The second derivative matrix:
                          R1
           R1           0.31397
 ITU=  1  0
 Use linear search instead of GDIIS.
     Eigenvalues ---    0.31397
 RFO step:  Lambda= 0.00000000D+00 EMin= 3.13966884D-01
 Quartic linear search produced a step of -0.01655.
 Iteration  1 RMS(Cart)=  0.00014391 RMS(Int)=  0.00000000
 Iteration  2 RMS(Cart)=  0.00000000 RMS(Int)=  0.00000000
 ClnCor:  largest displacement from symmetrization is 0.00D+00 for atom     0.
 Variable       Old X    -DE/DX   Delta X   Delta X   Delta X     New X
                                 (Linear)    (Quad)   (Total)
    R1        2.42545   0.00007   0.00020   0.00000   0.00020   2.42565
         Item               Value     Threshold  Converged?
 Maximum Force            0.000065     0.000450     YES
 RMS     Force            0.000065     0.000300     YES
 Maximum Displacement     0.000102     0.001800     YES
 RMS     Displacement     0.000144     0.001200     YES
 Predicted change in Energy=-6.735036D-09
 Optimization completed.
    -- Stationary point found.
                           ----------------------------
                           !   Optimized Parameters   !
                           ! (Angstroms and Degrees)  !
 --------------------------                            --------------------------
 ! Name  Definition              Value          Derivative Info.                !
 --------------------------------------------------------------------------------
 ! R1    R(1,2)                  1.2835         -DE/DX =    0.0001              !
 --------------------------------------------------------------------------------
 GradGradGradGradGradGradGradGradGradGradGradGradGradGradGradGradGradGrad

                          Input orientation:                          
 ---------------------------------------------------------------------
 Center     Atomic      Atomic             Coordinates (Angstroms)
 Number     Number       Type             X           Y           Z
 ---------------------------------------------------------------------
      1         17           0       -0.432794   -0.022321    0.011248
      2          1           0       -1.716287   -0.022321    0.011248
 ---------------------------------------------------------------------
 Stoichiometry    ClH
 Framework group  C*V[C*(HCl)]
 Deg. of freedom     1
 Full point group                 C*V     NOp   4
 Largest Abelian subgroup         C2V     NOp   4
 Largest concise Abelian subgroup C1      NOp   1
                         Standard orientation:                         
 ---------------------------------------------------------------------
 Center     Atomic      Atomic             Coordinates (Angstroms)
 Number     Number       Type             X           Y           Z
 ---------------------------------------------------------------------
      1         17           0        0.000000    0.000000    0.071305
      2          1           0        0.000000    0.000000   -1.212188
 ---------------------------------------------------------------------
 Rotational constants (GHZ):      0.0000000    313.1734197    313.1734197

 **********************************************************************

            Population analysis using the SCF density.

 **********************************************************************

 Orbital symmetries:
       Occupied  (SG) (SG) (SG) (PI) (PI) (SG) (SG) (PI) (PI)
       Virtual   (SG) (SG) (SG) (PI) (PI) (SG) (PI) (PI) (DLTA)
                 (DLTA) (SG) (PI) (PI) (SG) (SG) (PI) (PI) (SG)
                 (PI) (PI) (DLTA) (DLTA) (DLTA) (DLTA) (SG) (PI)
                 (PI) (SG) (PHI) (PHI) (PI) (PI) (SG) (DLTA) (DLTA)
                 (PI) (PI) (SG) (SG) (DLTA) (DLTA) (SG) (PI) (PI)
                 (PI) (PI) (SG) (PI) (PI) (PHI) (PHI) (DLTA) (DLTA)
                 (SG) (SG) (DLTA) (DLTA) (PI) (PI) (PI) (PI) (SG)
                 (SG) (SG)
 The electronic state is 1-SG.
 Alpha  occ. eigenvalues -- -101.57331  -9.47889  -7.24175  -7.23311  -7.23311
 Alpha  occ. eigenvalues --   -0.85120  -0.47816  -0.33930  -0.33930
 Alpha virt. eigenvalues --   -0.02796   0.04014   0.05480   0.06240   0.06240
 Alpha virt. eigenvalues --    0.11106   0.14428   0.14428   0.22163   0.22163
 Alpha virt. eigenvalues --    0.25112   0.32127   0.32127   0.32973   0.47229
 Alpha virt. eigenvalues --    0.48236   0.48236   0.52658   0.68065   0.68065
 Alpha virt. eigenvalues --    0.69489   0.69489   0.73979   0.73980   0.75158
 Alpha virt. eigenvalues --    0.80326   0.80326   0.90373   0.98834   0.98834
 Alpha virt. eigenvalues --    1.10009   1.10009   1.10911   1.18185   1.18185
 Alpha virt. eigenvalues --    1.54035   1.54035   1.54640   1.61274   2.16803
 Alpha virt. eigenvalues --    2.16803   2.16865   2.21570   2.21570   2.48051
 Alpha virt. eigenvalues --    2.48051   2.59411   2.69176   2.69176   2.71589
 Alpha virt. eigenvalues --    2.71589   2.73167   2.73167   2.95028   3.25760
 Alpha virt. eigenvalues --    3.61527   3.61527   4.08152   4.08152   4.14500
 Alpha virt. eigenvalues --    4.14500   4.38411   4.77179   7.01018
          Condensed to atoms (all electrons):
              1          2
     1  Cl  16.788131   0.356667
     2  H    0.356667   0.498535
 Mulliken atomic charges:
              1
     1  Cl  -0.144798
     2  H    0.144798
 Sum of Mulliken atomic charges =   0.00000
 Mulliken charges with hydrogens summed into heavy atoms:
              1
     1  Cl   0.000000
 Sum of Mulliken charges with hydrogens summed into heavy atoms =   0.00000
 Electronic spatial extent (au):  <R**2>=             34.3782
 Charge=              0.0000 electrons
 Dipole moment (field-independent basis, Debye):
    X=              0.0000    Y=              0.0000    Z=             -1.1155  Tot=              1.1155
 Quadrupole moment (field-independent basis, Debye-Ang):
   XX=            -14.1139   YY=            -14.1139   ZZ=            -10.5391
   XY=              0.0000   XZ=              0.0000   YZ=              0.0000
 Traceless Quadrupole moment (field-independent basis, Debye-Ang):
   XX=             -1.1916   YY=             -1.1916   ZZ=              2.3832
   XY=              0.0000   XZ=              0.0000   YZ=              0.0000
 Octapole moment (field-independent basis, Debye-Ang**2):
  XXX=              0.0000  YYY=              0.0000  ZZZ=             -2.4274  XYY=              0.0000
  XXY=              0.0000  XXZ=             -0.0122  XZZ=              0.0000  YZZ=              0.0000
  YYZ=             -0.0122  XYZ=              0.0000
 Hexadecapole moment (field-independent basis, Debye-Ang**3):
 XXXX=            -17.1709 YYYY=            -17.1709 ZZZZ=            -14.6433 XXXY=              0.0000
 XXXZ=              0.0000 YYYX=              0.0000 YYYZ=              0.0000 ZZZX=              0.0000
 ZZZY=              0.0000 XXYY=             -5.7237 XXZZ=             -6.0756 YYZZ=             -6.0756
 XXYZ=              0.0000 YYXZ=              0.0000 ZZXY=              0.0000
 N-N= 7.009009315381D+00 E-N=-1.109371996724D+03  KE= 4.595648936865D+02
 Symmetry A1   KE= 3.681960506521D+02
 Symmetry A2   KE= 8.662096429699D-53
 Symmetry B1   KE= 4.568442151722D+01
 Symmetry B2   KE= 4.568442151722D+01
 1\1\GINC-C01\FOpt\RB3LYP\Aug-CC-pVTZ\Cl1H1\TUU61186\14-Apr-2026\0\\# o
 pt freq b3lyp/aug-cc-pvtz\\Title Card Required\\0,1\Cl,-0.4327938818,-
 0.02232143,0.01124791\H,-1.7162866182,-0.02232143,0.01124791\\Version=
 EM64L-G09RevC.01\State=1-SG\HF=-460.8442642\RMSD=2.018e-09\RMSF=3.755e
 -05\Dipole=-0.4388656,0.,0.\Quadrupole=1.7718221,-0.885911,-0.885911,0
 .,0.,0.\PG=C*V [C*(H1Cl1)]\\@


 DO NOT LET SELFISH MEN OR GREEDY INTERESTS SKIN YOUR COUNTRY OF ITS
 BEAUTY, ITS RICHES, OR ITS ROMANCE. -- THEODORE ROOSEVELT
 Job cpu time:  0 days  0 hours  0 minutes 40.6 seconds.
 File lengths (MBytes):  RWF=      5 Int=      0 D2E=      0 Chk=      1 Scr=      1
 Normal termination of Gaussian 09 at Tue Apr 14 21:42:20 2026.
 Link1:  Proceeding to internal job step number  2.
 ----------------------------------------------------------------------
 #N Geom=AllCheck Guess=TCheck SCRF=Check GenChk RB3LYP/Aug-CC-pVTZ Fre
 q
 ----------------------------------------------------------------------
 1/10=4,29=7,30=1,38=1,40=1/1,3;
 2/12=2,40=1/2;
 3/5=16,6=1,7=10,11=2,14=-4,16=1,25=1,30=1,70=2,71=2,74=-5,116=1/1,2,3;
 4/5=101/1;
 5/5=2,98=1/2;
 8/6=4,10=90,11=11/1;
 11/6=1,8=1,9=11,15=111,16=1/1,2,10;
 10/6=1/2;
 6/7=2,8=2,9=2,10=2,18=1,28=1/1;
 7/8=1,10=1,25=1/1,2,3,16;
 1/10=4,30=1/3;
 99//99;
 Structure from the checkpoint file:  HCl_B3LYP.chk
 -------------------
 Title Card Required
 -------------------
 Charge =  0 Multiplicity = 1
 Redundant internal coordinates found in file.
 Cl,0,-0.4327938818,-0.02232143,0.01124791
 H,0,-1.7162866182,-0.02232143,0.01124791
 Recover connectivity data from disk.

 GradGradGradGradGradGradGradGradGradGradGradGradGradGradGradGradGradGrad
 Berny optimization.
 Initialization pass.
                           ----------------------------
                           !    Initial Parameters    !
                           ! (Angstroms and Degrees)  !
 --------------------------                            --------------------------
 ! Name  Definition              Value          Derivative Info.                !
 --------------------------------------------------------------------------------
 ! R1    R(1,2)                  1.2835         calculate D2E/DX2 analytically  !
 --------------------------------------------------------------------------------
 Trust Radius=3.00D-01 FncErr=1.00D-07 GrdErr=1.00D-07
 Number of steps in this run=      2 maximum allowed number of steps=      2.
 GradGradGradGradGradGradGradGradGradGradGradGradGradGradGradGradGradGrad

                          Input orientation:                          
 ---------------------------------------------------------------------
 Center     Atomic      Atomic             Coordinates (Angstroms)
 Number     Number       Type             X           Y           Z
 ---------------------------------------------------------------------
      1         17           0       -0.432794   -0.022321    0.011248
      2          1           0       -1.716287   -0.022321    0.011248
 ---------------------------------------------------------------------
 Stoichiometry    ClH
 Framework group  C*V[C*(HCl)]
 Deg. of freedom     1
 Full point group                 C*V     NOp   4
 Largest Abelian subgroup         C2V     NOp   4
 Largest concise Abelian subgroup C1      NOp   1
                         Standard orientation:                         
 ---------------------------------------------------------------------
 Center     Atomic      Atomic             Coordinates (Angstroms)
 Number     Number       Type             X           Y           Z
 ---------------------------------------------------------------------
      1         17           0        0.000000    0.000000    0.071305
      2          1           0        0.000000    0.000000   -1.212188
 ---------------------------------------------------------------------
 Rotational constants (GHZ):      0.0000000    313.1734197    313.1734197
 Standard basis: Aug-CC-pVTZ (5D, 7F)
 There are    32 symmetry adapted basis functions of A1  symmetry.
 There are     7 symmetry adapted basis functions of A2  symmetry.
 There are    17 symmetry adapted basis functions of B1  symmetry.
 There are    17 symmetry adapted basis functions of B2  symmetry.
 Integral buffers will be    131072 words long.
 Raffenetti 2 integral format.
 Two-electron integral symmetry is turned on.
    73 basis functions,   141 primitive gaussians,    84 cartesian basis functions
     9 alpha electrons        9 beta electrons
       nuclear repulsion energy         7.0090093154 Hartrees.
 NAtoms=    2 NActive=    2 NUniq=    2 SFac= 1.00D+00 NAtFMM=   60 NAOKFM=F Big=F
 One-electron integrals computed using PRISM.
 NBasis=    73 RedAO= T  NBF=    32     7    17    17
 NBsUse=    73 1.00D-06 NBFU=    32     7    17    17
 Initial guess read from the checkpoint file:  HCl_B3LYP.chk
 B after Tr=     0.000000    0.000000    0.000000
         Rot=    1.000000    0.000000    0.000000    0.000000 Ang=   0.00 deg.
 Initial guess orbital symmetries:
       Occupied  (SG) (SG) (SG) (PI) (PI) (SG) (SG) (PI) (PI)
       Virtual   (SG) (SG) (SG) (PI) (PI) (SG) (PI) (PI) (DLTA)
                 (DLTA) (SG) (PI) (PI) (SG) (SG) (PI) (PI) (SG)
                 (PI) (PI) (DLTA) (DLTA) (DLTA) (DLTA) (SG) (PI)
                 (PI) (SG) (PHI) (PHI) (PI) (PI) (SG) (DLTA) (DLTA)
                 (PI) (PI) (SG) (SG) (DLTA) (DLTA) (SG) (PI) (PI)
                 (PI) (PI) (SG) (PI) (PI) (PHI) (PHI) (DLTA) (DLTA)
                 (SG) (SG) (DLTA) (DLTA) (PI) (PI) (PI) (PI) (SG)
                 (SG) (SG)
 Requested convergence on RMS density matrix=1.00D-08 within 128 cycles.
 Requested convergence on MAX density matrix=1.00D-06.
 Requested convergence on             energy=1.00D-06.
 No special actions if energy rises.
 Keep R1 ints in memory in canonical form, NReq=8371914.
 SCF Done:  E(RB3LYP) =  -460.844264206     A.U. after    1 cycles
             Convg  =    0.1677D-09             -V/T =  2.0028
 Range of M.O.s used for correlation:     1    73
 NBasis=    73 NAE=     9 NBE=     9 NFC=     0 NFV=     0
 NROrb=     73 NOA=     9 NOB=     9 NVA=    64 NVB=    64

 **** Warning!!: The largest alpha MO coefficient is  0.15040962D+02

 Symmetrizing basis deriv contribution to polar:
 IMax=3 JMax=2 DiffMx= 0.00D+00
 G2DrvN: will do     3 centers at a time, making    1 passes doing MaxLOS=3.
 Calling FoFCou, ICntrl=  3107 FMM=F I1Cent=   0 AccDes= 0.00D+00.
 FoFDir/FoFCou used for L=0 through L=3.
 End of G2Drv Frequency-dependent properties file   721 does not exist.
 End of G2Drv Frequency-dependent properties file   722 does not exist.
          IDoAtm=11
          Differentiating once with respect to electric field.
                with respect to dipole field.
          Differentiating once with respect to nuclear coordinates.
          Keep R1 ints in memory in canonical form, NReq=8315605.
          There are     9 degrees of freedom in the 1st order CPHF.  IDoFFX=5.
      6 vectors produced by pass  0 Test12= 6.40D-15 1.11D-08 XBig12= 1.45D+01 2.16D+00.
 AX will form     6 AO Fock derivatives at one time.
      6 vectors produced by pass  1 Test12= 6.40D-15 1.11D-08 XBig12= 1.67D+00 5.35D-01.
      6 vectors produced by pass  2 Test12= 6.40D-15 1.11D-08 XBig12= 2.15D-02 4.90D-02.
      6 vectors produced by pass  3 Test12= 6.40D-15 1.11D-08 XBig12= 5.54D-05 1.99D-03.
      6 vectors produced by pass  4 Test12= 6.40D-15 1.11D-08 XBig12= 3.98D-07 1.66D-04.
      6 vectors produced by pass  5 Test12= 6.40D-15 1.11D-08 XBig12= 1.59D-09 1.71D-05.
      3 vectors produced by pass  6 Test12= 6.40D-15 1.11D-08 XBig12= 1.47D-12 3.49D-07.
 Inverted reduced A of dimension    39 with in-core refinement.
 Isotropic polarizability for W=    0.000000       17.55 Bohr**3.
 End of Minotr Frequency-dependent properties file   721 does not exist.
 End of Minotr Frequency-dependent properties file   722 does not exist.

 **********************************************************************

            Population analysis using the SCF density.

 **********************************************************************

 Orbital symmetries:
       Occupied  (SG) (SG) (SG) (PI) (PI) (SG) (SG) (PI) (PI)
       Virtual   (SG) (SG) (SG) (PI) (PI) (SG) (PI) (PI) (DLTA)
                 (DLTA) (SG) (PI) (PI) (SG) (SG) (PI) (PI) (SG)
                 (PI) (PI) (DLTA) (DLTA) (DLTA) (DLTA) (SG) (PI)
                 (PI) (SG) (PHI) (PHI) (PI) (PI) (SG) (DLTA) (DLTA)
                 (PI) (PI) (SG) (SG) (DLTA) (DLTA) (SG) (PI) (PI)
                 (PI) (PI) (SG) (PI) (PI) (PHI) (PHI) (DLTA) (DLTA)
                 (SG) (SG) (DLTA) (DLTA) (PI) (PI) (PI) (PI) (SG)
                 (SG) (SG)
 The electronic state is 1-SG.
 Alpha  occ. eigenvalues -- -101.57331  -9.47889  -7.24175  -7.23311  -7.23311
 Alpha  occ. eigenvalues --   -0.85120  -0.47816  -0.33930  -0.33930
 Alpha virt. eigenvalues --   -0.02796   0.04014   0.05480   0.06240   0.06240
 Alpha virt. eigenvalues --    0.11106   0.14428   0.14428   0.22163   0.22163
 Alpha virt. eigenvalues --    0.25112   0.32127   0.32127   0.32973   0.47229
 Alpha virt. eigenvalues --    0.48236   0.48236   0.52658   0.68065   0.68065
 Alpha virt. eigenvalues --    0.69489   0.69489   0.73979   0.73980   0.75158
 Alpha virt. eigenvalues --    0.80326   0.80326   0.90373   0.98834   0.98834
 Alpha virt. eigenvalues --    1.10009   1.10009   1.10911   1.18185   1.18185
 Alpha virt. eigenvalues --    1.54035   1.54035   1.54640   1.61274   2.16803
 Alpha virt. eigenvalues --    2.16803   2.16865   2.21570   2.21570   2.48051
 Alpha virt. eigenvalues --    2.48051   2.59411   2.69176   2.69176   2.71589
 Alpha virt. eigenvalues --    2.71589   2.73167   2.73167   2.95028   3.25760
 Alpha virt. eigenvalues --    3.61527   3.61527   4.08152   4.08152   4.14500
 Alpha virt. eigenvalues --    4.14500   4.38411   4.77179   7.01018
          Condensed to atoms (all electrons):
              1          2
     1  Cl  16.788131   0.356667
     2  H    0.356667   0.498535
 Mulliken atomic charges:
              1
     1  Cl  -0.144798
     2  H    0.144798
 Sum of Mulliken atomic charges =   0.00000
 Mulliken charges with hydrogens summed into heavy atoms:
              1
     1  Cl   0.000000
 Sum of Mulliken charges with hydrogens summed into heavy atoms =   0.00000
 APT atomic charges:
              1
     1  Cl  -0.188127
     2  H    0.188127
 Sum of APT charges=   0.00000
 APT Atomic charges with hydrogens summed into heavy atoms:
              1
     1  Cl   0.000000
     2  H    0.000000
 Sum of APT charges=   0.00000
 Electronic spatial extent (au):  <R**2>=             34.3782
 Charge=              0.0000 electrons
 Dipole moment (field-independent basis, Debye):
    X=              0.0000    Y=              0.0000    Z=             -1.1155  Tot=              1.1155
 Quadrupole moment (field-independent basis, Debye-Ang):
   XX=            -14.1139   YY=            -14.1139   ZZ=            -10.5391
   XY=              0.0000   XZ=              0.0000   YZ=              0.0000
 Traceless Quadrupole moment (field-independent basis, Debye-Ang):
   XX=             -1.1916   YY=             -1.1916   ZZ=              2.3832
   XY=              0.0000   XZ=              0.0000   YZ=              0.0000
 Octapole moment (field-independent basis, Debye-Ang**2):
  XXX=              0.0000  YYY=              0.0000  ZZZ=             -2.4274  XYY=              0.0000
  XXY=              0.0000  XXZ=             -0.0122  XZZ=              0.0000  YZZ=              0.0000
  YYZ=             -0.0122  XYZ=              0.0000
 Hexadecapole moment (field-independent basis, Debye-Ang**3):
 XXXX=            -17.1709 YYYY=            -17.1709 ZZZZ=            -14.6433 XXXY=              0.0000
 XXXZ=              0.0000 YYYX=              0.0000 YYYZ=              0.0000 ZZZX=              0.0000
 ZZZY=              0.0000 XXYY=             -5.7237 XXZZ=             -6.0756 YYZZ=             -6.0756
 XXYZ=              0.0000 YYXZ=              0.0000 ZZXY=              0.0000
 N-N= 7.009009315381D+00 E-N=-1.109371997081D+03  KE= 4.595648938262D+02
 Symmetry A1   KE= 3.681960507229D+02
 Symmetry A2   KE=-1.476450479552D-51
 Symmetry B1   KE= 4.568442155166D+01
 Symmetry B2   KE= 4.568442155166D+01
  Exact polarizability:  16.954   0.000  16.954   0.000   0.000  18.731
 Approx polarizability:  22.490   0.000  22.490   0.000   0.000  29.146
 Calling FoFJK, ICntrl=    100127 FMM=F ISym2X=1 I1Cent= 0 IOpClX= 0 NMat=1 NMatS=1 NMatT=0.
 Full mass-weighted force constant matrix:
 Low frequencies ---   -0.0084   -0.0084   -0.0071   12.7643   12.7643 2936.6754
 Harmonic frequencies (cm**-1), IR intensities (KM/Mole), Raman scattering
 activities (A**4/AMU), depolarization ratios for plane and unpolarized
 incident light, reduced masses (AMU), force constants (mDyne/A),
 and normal coordinates:
                     1
                    SG
 Frequencies --  2936.6754
 Red. masses --     1.0360
 Frc consts  --     5.2641
 IR Inten    --    40.8064
  Atom  AN      X      Y      Z
     1  17     0.00   0.00   0.03
     2   1     0.00   0.00  -1.00

 -------------------
 - Thermochemistry -
 -------------------
 Temperature   298.150 Kelvin.  Pressure   1.00000 Atm.
 Atom     1 has atomic number 17 and mass  34.96885
 Atom     2 has atomic number  1 and mass   1.00783
 Molecular mass:    35.97668 amu.
 Principal axes and moments of inertia in atomic units:
                           1         2         3
     Eigenvalues --     0.00000   5.76275   5.76275
           X            0.00000   0.00000   1.00000
           Y            0.00000   1.00000   0.00000
           Z            1.00000   0.00000   0.00000
 This molecule is a prolate symmetric top.
 Rotational symmetry number  1.
 Rotational temperature (Kelvin)     15.02994
 Rotational constant (GHZ):         313.173420
 Zero-point vibrational energy      17565.2 (Joules/Mol)
                                    4.19819 (Kcal/Mol)
 Vibrational temperatures:   4225.22
          (Kelvin)
 
 Zero-point correction=                           0.006690 (Hartree/Particle)
 Thermal correction to Energy=                    0.009051
 Thermal correction to Enthalpy=                  0.009995
 Thermal correction to Gibbs Free Energy=        -0.011194
 Sum of electronic and zero-point Energies=           -460.837574
 Sum of electronic and thermal Energies=              -460.835213
 Sum of electronic and thermal Enthalpies=            -460.834269
 Sum of electronic and thermal Free Energies=         -460.855458
 
                     E (Thermal)             CV                S
                      KCal/Mol        Cal/Mol-Kelvin    Cal/Mol-Kelvin
 Total                    5.679              4.968             44.595
 Electronic               0.000              0.000              0.000
 Translational            0.889              2.981             36.671
 Rotational               0.592              1.987              7.924
 Vibrational              4.198              0.000              0.000
                       Q            Log10(Q)             Ln(Q)
 Total Bot       0.140823D+06          5.148675         11.855263
 Total V=0       0.168254D+09          8.225965         18.940984
 Vib (Bot)       0.836971D-03         -3.077289         -7.085721
 Vib (V=0)       0.100000D+01          0.000000          0.000001
 Electronic      0.100000D+01          0.000000          0.000000
 Translational   0.848178D+07          6.928487         15.953430
 Rotational      0.198371D+02          1.297478          2.987553
 ***** Axes restored to original set *****
 -------------------------------------------------------------------
 Center     Atomic                   Forces (Hartrees/Bohr)
 Number     Number              X              Y              Z
 -------------------------------------------------------------------
      1       17           0.000065046    0.000000000    0.000000000
      2        1          -0.000065046    0.000000000    0.000000000
 -------------------------------------------------------------------
 Cartesian Forces:  Max     0.000065046 RMS     0.000037554

 GradGradGradGradGradGradGradGradGradGradGradGradGradGradGradGradGradGrad
 Berny optimization.
 Internal  Forces:  Max     0.000065046 RMS     0.000065046
 Search for a local minimum.
 Step number   1 out of a maximum of    2
 All quantities printed in internal units (Hartrees-Bohrs-Radians)
 Second derivative matrix not updated -- analytic derivatives used.
 The second derivative matrix:
                          R1
           R1           0.31970
 ITU=  0
     Eigenvalues ---    0.31970
 Angle between quadratic step and forces=   0.00 degrees.
 Linear search not attempted -- first point.
 Iteration  1 RMS(Cart)=  0.00014387 RMS(Int)=  0.00000000
 Iteration  2 RMS(Cart)=  0.00000000 RMS(Int)=  0.00000000
 ClnCor:  largest displacement from symmetrization is 0.00D+00 for atom     0.
 Variable       Old X    -DE/DX   Delta X   Delta X   Delta X     New X
                                 (Linear)    (Quad)   (Total)
    R1        2.42545   0.00007   0.00000   0.00020   0.00020   2.42565
         Item               Value     Threshold  Converged?
 Maximum Force            0.000065     0.000450     YES
 RMS     Force            0.000065     0.000300     YES
 Maximum Displacement     0.000102     0.001800     YES
 RMS     Displacement     0.000144     0.001200     YES
 Predicted change in Energy=-6.617080D-09
 Optimization completed.
    -- Stationary point found.
                           ----------------------------
                           !   Optimized Parameters   !
                           ! (Angstroms and Degrees)  !
 --------------------------                            --------------------------
 ! Name  Definition              Value          Derivative Info.                !
 --------------------------------------------------------------------------------
 ! R1    R(1,2)                  1.2835         -DE/DX =    0.0001              !
 --------------------------------------------------------------------------------
 GradGradGradGradGradGradGradGradGradGradGradGradGradGradGradGradGradGrad

 1\1\GINC-C01\Freq\RB3LYP\Aug-CC-pVTZ\Cl1H1\TUU61186\14-Apr-2026\0\\#N 
 Geom=AllCheck Guess=TCheck SCRF=Check GenChk RB3LYP/Aug-CC-pVTZ Freq\\
 Title Card Required\\0,1\Cl,-0.4327938818,-0.02232143,0.01124791\H,-1.
 7162866182,-0.02232143,0.01124791\\Version=EM64L-G09RevC.01\State=1-SG
 \HF=-460.8442642\RMSD=1.677e-10\RMSF=3.755e-05\ZeroPoint=0.0066902\The
 rmal=0.0090507\Dipole=-0.4388656,0.,0.\DipoleDeriv=-0.2024936,0.,0.,0.
 ,-0.1809436,0.,0.,0.,-0.1809436,0.2024936,0.,0.,0.,0.1809436,0.,0.,0.,
 0.1809436\Polar=18.7308506,0.,16.9541508,0.,0.,16.9541508\PG=C*V [C*(H
 1Cl1)]\NImag=0\\0.31970454,0.,0.00000604,0.,0.,0.00000604,-0.31970454,
 0.,0.,0.31970454,0.,-0.00000604,0.,0.,0.00000604,0.,0.,-0.00000604,0.,
 0.,0.00000604\\-0.00006505,0.,0.,0.00006505,0.,0.\\\@


 IF YOU'RE NOT PART OF THE SOLUTION,
 THEN YOU'RE PART OF THE PRECIPITATE.
 Job cpu time:  0 days  0 hours  0 minutes 30.9 seconds.
 File lengths (MBytes):  RWF=      5 Int=      0 D2E=      0 Chk=      1 Scr=      1
 Normal termination of Gaussian 09 at Tue Apr 14 21:42:28 2026.
