 Entering Gaussian System, Link 0=/data/opt/apps/g09-C01/g09
 Initial command:
 /data/opt/apps/g09-C01/l1.exe /tmp/g09-tuu61186-1178321c21e64fea8x/Gau-1178456.inp -scrdir=/tmp/g09-tuu61186-1178321c21e64fea8x/
 Entering Link 1 = /data/opt/apps/g09-C01/l1.exe PID=   1178463.
  
 Copyright (c) 1988,1990,1992,1993,1995,1998,2003,2009,2011,
            Gaussian, Inc.  All Rights Reserved.
  
 This is part of the Gaussian(R) 09 program.  It is based on
 the Gaussian(R) 03 system (copyright 2003, Gaussian, Inc.),
 the Gaussian(R) 98 system (copyright 1998, Gaussian, Inc.),
 the Gaussian(R) 94 system (copyright 1995, Gaussian, Inc.),
 the Gaussian 92(TM) system (copyright 1992, Gaussian, Inc.),
 the Gaussian 90(TM) system (copyright 1990, Gaussian, Inc.),
 the Gaussian 88(TM) system (copyright 1988, Gaussian, Inc.),
 the Gaussian 86(TM) system (copyright 1986, Carnegie Mellon
 University), and the Gaussian 82(TM) system (copyright 1983,
 Carnegie Mellon University). Gaussian is a federally registered
 trademark of Gaussian, Inc.
  
 This software contains proprietary and confidential information,
 including trade secrets, belonging to Gaussian, Inc.
  
 This software is provided under written license and may be
 used, copied, transmitted, or stored only in accord with that
 written license.
  
 The following legend is applicable only to US Government
 contracts under FAR:
  
                    RESTRICTED RIGHTS LEGEND
  
 Use, reproduction and disclosure by the US Government is
 subject to restrictions as set forth in subparagraphs (a)
 and (c) of the Commercial Computer Software - Restricted
 Rights clause in FAR 52.227-19.
  
 Gaussian, Inc.
 340 Quinnipiac St., Bldg. 40, Wallingford CT 06492
  
  
 ---------------------------------------------------------------
 Warning -- This program may not be used in any manner that
 competes with the business of Gaussian, Inc. or will provide
 assistance to any competitor of Gaussian, Inc.  The licensee
 of this program is prohibited from giving any competitor of
 Gaussian, Inc. access to this program.  By using this program,
 the user acknowledges that Gaussian, Inc. is engaged in the
 business of creating and licensing software in the field of
 computational chemistry and represents and warrants to the
 licensee that it is not a competitor of Gaussian, Inc. and that
 it will not use this program in any manner prohibited above.
 ---------------------------------------------------------------
  

 Cite this work as:
 Gaussian 09, Revision C.01,
 M. J. Frisch, G. W. Trucks, H. B. Schlegel, G. E. Scuseria, 
 M. A. Robb, J. R. Cheeseman, G. Scalmani, V. Barone, B. Mennucci, 
 G. A. Petersson, H. Nakatsuji, M. Caricato, X. Li, H. P. Hratchian, 
 A. F. Izmaylov, J. Bloino, G. Zheng, J. L. Sonnenberg, M. Hada, 
 M. Ehara, K. Toyota, R. Fukuda, J. Hasegawa, M. Ishida, T. Nakajima, 
 Y. Honda, O. Kitao, H. Nakai, T. Vreven, J. A. Montgomery, Jr., 
 J. E. Peralta, F. Ogliaro, M. Bearpark, J. J. Heyd, E. Brothers, 
 K. N. Kudin, V. N. Staroverov, T. Keith, R. Kobayashi, J. Normand, 
 K. Raghavachari, A. Rendell, J. C. Burant, S. S. Iyengar, J. Tomasi, 
 M. Cossi, N. Rega, J. M. Millam, M. Klene, J. E. Knox, J. B. Cross, 
 V. Bakken, C. Adamo, J. Jaramillo, R. Gomperts, R. E. Stratmann, 
 O. Yazyev, A. J. Austin, R. Cammi, C. Pomelli, J. W. Ochterski, 
 R. L. Martin, K. Morokuma, V. G. Zakrzewski, G. A. Voth, 
 P. Salvador, J. J. Dannenberg, S. Dapprich, A. D. Daniels, 
 O. Farkas, J. B. Foresman, J. V. Ortiz, J. Cioslowski, 
 and D. J. Fox, Gaussian, Inc., Wallingford CT, 2010.
 
 ******************************************
 Gaussian 09:  EM64L-G09RevC.01 23-Sep-2011
                24-Apr-2026 
 ******************************************
 %nprocshared=8
 Will use up to    8 processors via shared memory.
 %mem=14GB
 -----------------------------------
 # opt=modredundant b3lyp/6-31g(d,p)
 -----------------------------------
 1/14=-1,18=120,19=15,26=3,38=1/1,3;
 2/9=110,12=2,17=6,18=5,40=1/2;
 3/5=1,6=6,7=101,11=2,16=1,25=1,30=1,71=1,74=-5/1,2,3;
 4//1;
 5/5=2,38=5/2;
 6/7=2,8=2,9=2,10=2,28=1/1;
 7//1,2,3,16;
 1/14=-1,18=20,19=15/3(2);
 2/9=110/2;
 99//99;
 2/9=110/2;
 3/5=1,6=6,7=101,11=2,16=1,25=1,30=1,71=1,74=-5/1,2,3;
 4/5=5,16=3/1;
 5/5=2,38=5/2;
 7//1,2,3,16;
 1/14=-1,18=20,19=15/3(-5);
 2/9=110/2;
 6/7=2,8=2,9=2,10=2,19=2,28=1/1;
 99/9=1/99;
 ---------------
 QM dihedral opt
 ---------------
 Charge =  0 Multiplicity = 1
 Symbolic Z-Matrix:
 C                     1.88504   2.72305   0.55443 
 C                     0.65239   2.15943  -0.13703 
 O                    -0.12389   2.89795  -0.73652 
 N                     0.43841   0.79935  -0.0461 
 C                    -0.76106   0.26711  -0.66448 
 C                    -1.77456  -0.24302   0.37997 
 O                    -1.51581  -0.20821   1.57854 
 N                    -2.95421  -0.7537   -0.10174 
 C                    -3.36653  -0.75785  -1.49557 
 C                    -3.94242  -1.25621   0.84274 
 H                     1.94505   3.77965   0.29627 
 H                     2.80888   2.22377   0.24839 
 H                     1.79858   2.62895   1.64202 
 H                    -1.19241   1.08048  -1.25201 
 H                    -0.50274  -0.5505   -1.3503 
 H                    -2.58671  -0.37049  -2.14752 
 H                    -3.6072   -1.77843  -1.82014 
 H                    -4.26352  -0.1402   -1.63585 
 H                    -4.20893  -2.2922    0.59994 
 H                    -3.51647  -1.2111    1.84319 
 H                    -4.85556  -0.64833   0.80837 
 C                     1.35144  -0.13735   0.60319 
 H                     1.88964   0.35963   1.41125 
 H                     0.7614   -0.92666   1.07144 
 C                     2.35974  -0.75109  -0.37206 
 H                     2.99208   0.03452  -0.82016 
 H                     1.83567  -1.25242  -1.20446 
 O                     3.14153  -1.67439   0.35658 
 C                     4.11887  -2.31776  -0.43397 
 H                     4.66236  -3.00554   0.21786 
 H                     3.66577  -2.89157  -1.25774 
 H                     4.83262  -1.59977  -0.86769 
 
 The following ModRedundant input section has been read:
 D       2       4       5       6 F                                           
 D       4       5       6       8 S  36 10.000                                

 GradGradGradGradGradGradGradGradGradGradGradGradGradGradGradGradGradGrad
 Berny optimization.
 Initialization pass.
                           ----------------------------
                           !    Initial Parameters    !
                           ! (Angstroms and Degrees)  !
 --------------------------                            --------------------------
 ! Name  Definition              Value          Derivative Info.                !
 --------------------------------------------------------------------------------
 ! R1    R(1,2)                  1.5216         estimate D2E/DX2                !
 ! R2    R(1,11)                 1.0893         estimate D2E/DX2                !
 ! R3    R(1,12)                 1.0938         estimate D2E/DX2                !
 ! R4    R(1,13)                 1.0951         estimate D2E/DX2                !
 ! R5    R(2,3)                  1.2278         estimate D2E/DX2                !
 ! R6    R(2,4)                  1.3798         estimate D2E/DX2                !
 ! R7    R(4,5)                  1.4507         estimate D2E/DX2                !
 ! R8    R(4,22)                 1.4604         estimate D2E/DX2                !
 ! R9    R(5,6)                  1.5422         estimate D2E/DX2                !
 ! R10   R(5,14)                 1.0922         estimate D2E/DX2                !
 ! R11   R(5,15)                 1.098          estimate D2E/DX2                !
 ! R12   R(6,7)                  1.2267         estimate D2E/DX2                !
 ! R13   R(6,8)                  1.3727         estimate D2E/DX2                !
 ! R14   R(8,9)                  1.4535         estimate D2E/DX2                !
 ! R15   R(8,10)                 1.4564         estimate D2E/DX2                !
 ! R16   R(9,16)                 1.0877         estimate D2E/DX2                !
 ! R17   R(9,17)                 1.0977         estimate D2E/DX2                !
 ! R18   R(9,18)                 1.0981         estimate D2E/DX2                !
 ! R19   R(10,19)                1.0969         estimate D2E/DX2                !
 ! R20   R(10,20)                1.0883         estimate D2E/DX2                !
 ! R21   R(10,21)                1.0975         estimate D2E/DX2                !
 ! R22   R(22,23)                1.0907         estimate D2E/DX2                !
 ! R23   R(22,24)                1.0911         estimate D2E/DX2                !
 ! R24   R(22,25)                1.5312         estimate D2E/DX2                !
 ! R25   R(25,26)                1.1036         estimate D2E/DX2                !
 ! R26   R(25,27)                1.104          estimate D2E/DX2                !
 ! R27   R(25,28)                1.4123         estimate D2E/DX2                !
 ! R28   R(28,29)                1.4121         estimate D2E/DX2                !
 ! R29   R(29,30)                1.0924         estimate D2E/DX2                !
 ! R30   R(29,31)                1.1014         estimate D2E/DX2                !
 ! R31   R(29,32)                1.1014         estimate D2E/DX2                !
 ! A1    A(2,1,11)             107.2305         estimate D2E/DX2                !
 ! A2    A(2,1,12)             112.8303         estimate D2E/DX2                !
 ! A3    A(2,1,13)             110.8269         estimate D2E/DX2                !
 ! A4    A(11,1,12)            109.2635         estimate D2E/DX2                !
 ! A5    A(11,1,13)            108.848          estimate D2E/DX2                !
 ! A6    A(12,1,13)            107.7781         estimate D2E/DX2                !
 ! A7    A(1,2,3)              120.75           estimate D2E/DX2                !
 ! A8    A(1,2,4)              117.4387         estimate D2E/DX2                !
 ! A9    A(3,2,4)              121.8056         estimate D2E/DX2                !
 ! A10   A(2,4,5)              117.5024         estimate D2E/DX2                !
 ! A11   A(2,4,22)             124.3743         estimate D2E/DX2                !
 ! A12   A(5,4,22)             118.1087         estimate D2E/DX2                !
 ! A13   A(4,5,6)              112.0893         estimate D2E/DX2                !
 ! A14   A(4,5,14)             106.4173         estimate D2E/DX2                !
 ! A15   A(4,5,15)             110.1787         estimate D2E/DX2                !
 ! A16   A(6,5,14)             110.5561         estimate D2E/DX2                !
 ! A17   A(6,5,15)             109.3493         estimate D2E/DX2                !
 ! A18   A(14,5,15)            108.148          estimate D2E/DX2                !
 ! A19   A(5,6,7)              120.913          estimate D2E/DX2                !
 ! A20   A(5,6,8)              116.7528         estimate D2E/DX2                !
 ! A21   A(7,6,8)              122.3233         estimate D2E/DX2                !
 ! A22   A(6,8,9)              125.5438         estimate D2E/DX2                !
 ! A23   A(6,8,10)             118.9387         estimate D2E/DX2                !
 ! A24   A(9,8,10)             115.3661         estimate D2E/DX2                !
 ! A25   A(8,9,16)             111.7375         estimate D2E/DX2                !
 ! A26   A(8,9,17)             110.3891         estimate D2E/DX2                !
 ! A27   A(8,9,18)             110.6475         estimate D2E/DX2                !
 ! A28   A(16,9,17)            108.1237         estimate D2E/DX2                !
 ! A29   A(16,9,18)            107.9841         estimate D2E/DX2                !
 ! A30   A(17,9,18)            107.8244         estimate D2E/DX2                !
 ! A31   A(8,10,19)            110.3143         estimate D2E/DX2                !
 ! A32   A(8,10,20)            108.4383         estimate D2E/DX2                !
 ! A33   A(8,10,21)            110.6793         estimate D2E/DX2                !
 ! A34   A(19,10,20)           109.7376         estimate D2E/DX2                !
 ! A35   A(19,10,21)           108.3024         estimate D2E/DX2                !
 ! A36   A(20,10,21)           109.3585         estimate D2E/DX2                !
 ! A37   A(4,22,23)            110.2205         estimate D2E/DX2                !
 ! A38   A(4,22,24)            108.4646         estimate D2E/DX2                !
 ! A39   A(4,22,25)            112.683          estimate D2E/DX2                !
 ! A40   A(23,22,24)           106.173          estimate D2E/DX2                !
 ! A41   A(23,22,25)           109.2436         estimate D2E/DX2                !
 ! A42   A(24,22,25)           109.8469         estimate D2E/DX2                !
 ! A43   A(22,25,26)           110.525          estimate D2E/DX2                !
 ! A44   A(22,25,27)           110.4661         estimate D2E/DX2                !
 ! A45   A(22,25,28)           107.3356         estimate D2E/DX2                !
 ! A46   A(26,25,27)           106.8047         estimate D2E/DX2                !
 ! A47   A(26,25,28)           110.9592         estimate D2E/DX2                !
 ! A48   A(27,25,28)           110.7867         estimate D2E/DX2                !
 ! A49   A(25,28,29)           113.0887         estimate D2E/DX2                !
 ! A50   A(28,29,30)           107.2868         estimate D2E/DX2                !
 ! A51   A(28,29,31)           111.7986         estimate D2E/DX2                !
 ! A52   A(28,29,32)           111.8369         estimate D2E/DX2                !
 ! A53   A(30,29,31)           108.8402         estimate D2E/DX2                !
 ! A54   A(30,29,32)           108.8449         estimate D2E/DX2                !
 ! A55   A(31,29,32)           108.1603         estimate D2E/DX2                !
 ! D1    D(11,1,2,3)            -6.3669         estimate D2E/DX2                !
 ! D2    D(11,1,2,4)           174.4826         estimate D2E/DX2                !
 ! D3    D(12,1,2,3)          -126.7207         estimate D2E/DX2                !
 ! D4    D(12,1,2,4)            54.1288         estimate D2E/DX2                !
 ! D5    D(13,1,2,3)           112.3093         estimate D2E/DX2                !
 ! D6    D(13,1,2,4)           -66.8412         estimate D2E/DX2                !
 ! D7    D(1,2,4,5)            177.8741         estimate D2E/DX2                !
 ! D8    D(1,2,4,22)            -3.5439         estimate D2E/DX2                !
 ! D9    D(3,2,4,5)             -1.2669         estimate D2E/DX2                !
 ! D10   D(3,2,4,22)           177.3152         estimate D2E/DX2                !
 ! D11   D(2,4,5,6)           -111.33           Frozen                          !
 ! D12   D(2,4,5,14)             9.6423         estimate D2E/DX2                !
 ! D13   D(2,4,5,15)           126.6575         estimate D2E/DX2                !
 ! D14   D(22,4,5,6)            69.9968         estimate D2E/DX2                !
 ! D15   D(22,4,5,14)         -169.0309         estimate D2E/DX2                !
 ! D16   D(22,4,5,15)          -52.0157         estimate D2E/DX2                !
 ! D17   D(2,4,22,23)           29.8144         estimate D2E/DX2                !
 ! D18   D(2,4,22,24)          145.6591         estimate D2E/DX2                !
 ! D19   D(2,4,22,25)          -92.5041         estimate D2E/DX2                !
 ! D20   D(5,4,22,23)         -151.6115         estimate D2E/DX2                !
 ! D21   D(5,4,22,24)          -35.7668         estimate D2E/DX2                !
 ! D22   D(5,4,22,25)           86.07           estimate D2E/DX2                !
 ! D23   D(4,5,6,7)             -1.9231         estimate D2E/DX2                !
 ! D24   D(4,5,6,8)            179.2522         Scan                            !
 ! D25   D(14,5,6,7)          -120.4747         estimate D2E/DX2                !
 ! D26   D(14,5,6,8)            60.7005         estimate D2E/DX2                !
 ! D27   D(15,5,6,7)           120.5618         estimate D2E/DX2                !
 ! D28   D(15,5,6,8)           -58.263          estimate D2E/DX2                !
 ! D29   D(5,6,8,9)             -5.049          estimate D2E/DX2                !
 ! D30   D(5,6,8,10)           179.6433         estimate D2E/DX2                !
 ! D31   D(7,6,8,9)            176.1442         estimate D2E/DX2                !
 ! D32   D(7,6,8,10)             0.8365         estimate D2E/DX2                !
 ! D33   D(6,8,9,16)             4.4626         estimate D2E/DX2                !
 ! D34   D(6,8,9,17)           124.8244         estimate D2E/DX2                !
 ! D35   D(6,8,9,18)          -115.8985         estimate D2E/DX2                !
 ! D36   D(10,8,9,16)          179.9183         estimate D2E/DX2                !
 ! D37   D(10,8,9,17)          -59.7199         estimate D2E/DX2                !
 ! D38   D(10,8,9,18)           59.5573         estimate D2E/DX2                !
 ! D39   D(6,8,10,19)         -124.9214         estimate D2E/DX2                !
 ! D40   D(6,8,10,20)           -4.7213         estimate D2E/DX2                !
 ! D41   D(6,8,10,21)          115.2338         estimate D2E/DX2                !
 ! D42   D(9,8,10,19)           59.3031         estimate D2E/DX2                !
 ! D43   D(9,8,10,20)          179.5031         estimate D2E/DX2                !
 ! D44   D(9,8,10,21)          -60.5417         estimate D2E/DX2                !
 ! D45   D(4,22,25,26)          61.363          estimate D2E/DX2                !
 ! D46   D(4,22,25,27)         -56.6213         estimate D2E/DX2                !
 ! D47   D(4,22,25,28)        -177.5067         estimate D2E/DX2                !
 ! D48   D(23,22,25,26)        -61.5036         estimate D2E/DX2                !
 ! D49   D(23,22,25,27)       -179.4879         estimate D2E/DX2                !
 ! D50   D(23,22,25,28)         59.6267         estimate D2E/DX2                !
 ! D51   D(24,22,25,26)       -177.5855         estimate D2E/DX2                !
 ! D52   D(24,22,25,27)         64.4302         estimate D2E/DX2                !
 ! D53   D(24,22,25,28)        -56.4552         estimate D2E/DX2                !
 ! D54   D(22,25,28,29)        179.9411         estimate D2E/DX2                !
 ! D55   D(26,25,28,29)        -59.2022         estimate D2E/DX2                !
 ! D56   D(27,25,28,29)         59.2583         estimate D2E/DX2                !
 ! D57   D(25,28,29,30)       -179.9081         estimate D2E/DX2                !
 ! D58   D(25,28,29,31)        -60.6517         estimate D2E/DX2                !
 ! D59   D(25,28,29,32)         60.8074         estimate D2E/DX2                !
 --------------------------------------------------------------------------------
 Trust Radius=3.00D-01 FncErr=1.00D-07 GrdErr=1.00D-06
 Number of optimizations in scan=  37
 Number of steps in this run=    155 maximum allowed number of steps=    192.
 GradGradGradGradGradGradGradGradGradGradGradGradGradGradGradGradGradGrad

                          Input orientation:                          
 ---------------------------------------------------------------------
 Center     Atomic      Atomic             Coordinates (Angstroms)
 Number     Number       Type             X           Y           Z
 ---------------------------------------------------------------------
      1          6           0        1.885036    2.723049    0.554425
      2          6           0        0.652388    2.159434   -0.137034
      3          8           0       -0.123893    2.897948   -0.736520
      4          7           0        0.438407    0.799353   -0.046095
      5          6           0       -0.761059    0.267105   -0.664484
      6          6           0       -1.774559   -0.243021    0.379974
      7          8           0       -1.515812   -0.208213    1.578537
      8          7           0       -2.954207   -0.753704   -0.101743
      9          6           0       -3.366526   -0.757849   -1.495573
     10          6           0       -3.942423   -1.256206    0.842738
     11          1           0        1.945045    3.779648    0.296270
     12          1           0        2.808878    2.223766    0.248394
     13          1           0        1.798581    2.628954    1.642024
     14          1           0       -1.192407    1.080483   -1.252013
     15          1           0       -0.502744   -0.550501   -1.350300
     16          1           0       -2.586711   -0.370490   -2.147518
     17          1           0       -3.607198   -1.778425   -1.820142
     18          1           0       -4.263518   -0.140202   -1.635852
     19          1           0       -4.208926   -2.292204    0.599938
     20          1           0       -3.516468   -1.211100    1.843193
     21          1           0       -4.855559   -0.648330    0.808370
     22          6           0        1.351443   -0.137352    0.603191
     23          1           0        1.889639    0.359634    1.411245
     24          1           0        0.761395   -0.926657    1.071441
     25          6           0        2.359739   -0.751089   -0.372059
     26          1           0        2.992076    0.034518   -0.820164
     27          1           0        1.835668   -1.252423   -1.204459
     28          8           0        3.141534   -1.674386    0.356575
     29          6           0        4.118873   -2.317758   -0.433965
     30          1           0        4.662359   -3.005544    0.217856
     31          1           0        3.665774   -2.891574   -1.257744
     32          1           0        4.832617   -1.599771   -0.867687
 ---------------------------------------------------------------------
                    Distance matrix (angstroms):
                    1          2          3          4          5
     1  C    0.000000
     2  C    1.521578   0.000000
     3  O    2.394353   1.227762   0.000000
     4  N    2.480719   1.379811   2.279686   0.000000
     5  C    3.810409   2.420113   2.707860   1.450659   0.000000
     6  C    4.713877   3.453861   3.719804   2.483002   1.542175
     7  O    4.605092   3.640059   4.116450   2.733787   2.413860
     8  N    5.994718   4.636286   4.663495   3.731610   2.483672
     9  C    6.625560   5.148576   4.945269   4.359287   2.920565
    10  C    7.062356   5.808514   5.859370   4.920063   3.835788
    11  H    1.089333   2.117500   2.474784   3.356982   4.536960
    12  H    1.093811   2.191607   3.166342   2.781152   4.172088
    13  H    1.095080   2.167776   3.070136   2.836769   4.177328
    14  H    3.928345   2.410515   2.170400   2.047639   1.092170
    15  H    4.477231   3.185921   3.523075   2.099719   1.097975
    16  H    6.071820   4.575404   4.328865   3.864693   2.436990
    17  H    7.487755   6.040170   5.930946   5.114597   3.690562
    18  H    7.127428   5.630356   5.213027   5.051553   3.657414
    19  H    7.892478   6.632690   6.738790   5.618967   4.476227
    20  H    6.805490   5.714994   5.920199   4.822071   4.008218
    21  H    7.540975   6.254183   6.111582   5.554455   4.446600
    22  C    2.910154   2.512337   3.631045   1.460350   2.496648
    23  H    2.513940   2.677170   3.887190   2.103156   3.367998
    24  H    3.853599   3.316060   4.322044   2.081422   2.599302
    25  C    3.626755   3.382518   4.429078   2.490309   3.295696
    26  H    3.216089   3.233585   4.232669   2.775857   3.763556
    27  H    4.347469   3.765676   4.613505   2.739330   3.056719
    28  O    4.577703   4.597573   5.723994   3.686248   4.476849
    29  C    5.601489   5.670091   6.730245   4.838662   5.527060
    30  H    6.375232   6.548497   7.659651   5.691105   6.395484
    31  H    6.162708   5.987417   6.939151   5.050439   5.470472
    32  H    5.421938   5.669197   6.694301   5.073450   5.900485
                    6          7          8          9         10
     6  C    0.000000
     7  O    1.226668   0.000000
     8  N    1.372741   2.278131   0.000000
     9  C    2.513381   3.630068   1.453543   0.000000
    10  C    2.437279   2.743744   1.456408   2.459210   0.000000
    11  H    5.479446   5.433671   6.686731   7.211960   7.766642
    12  H    5.206750   5.136803   6.496235   7.075808   7.618629
    13  H    4.754823   4.363341   6.088686   6.927718   6.977998
    14  H    2.180354   3.126874   2.791290   2.857548   4.172611
    15  H    2.169310   3.117941   2.758597   2.874951   4.139907
    16  H    2.657829   3.880289   2.113552   1.087746   3.400600
    17  H    3.249083   4.288412   2.104601   1.097654   2.734231
    18  H    3.204535   4.229280   2.108120   1.098071   2.737147
    19  H    3.189620   3.543097   2.105625   2.730394   1.096936
    20  H    2.472334   2.253542   2.075602   3.372726   1.088293
    21  H    3.136935   3.455542   2.110580   2.745427   1.097503
    22  C    3.135742   3.029434   4.406296   5.200871   5.416109
    23  H    3.853967   3.456520   5.195334   6.109470   6.078411
    24  H    2.715980   2.441102   3.900253   4.863927   4.720891
    25  C    4.232742   4.372578   5.320818   5.835447   6.438021
    26  H    4.923227   5.112117   6.041167   6.443279   7.246964
    27  H    4.069774   4.479716   4.940405   5.233753   6.130038
    28  O    5.120286   5.033262   6.181890   6.828275   7.112923
    29  C    6.300760   6.344290   7.251558   7.719555   8.230514
    30  H    7.006549   6.917103   7.948900   8.511813   8.803007
    31  H    6.268507   6.487970   7.052019   7.352727   8.060466
    32  H    6.859461   6.944278   7.870014   8.266137   8.946783
                   11         12         13         14         15
    11  H    0.000000
    12  H    1.780244   0.000000
    13  H    1.776683   1.768356   0.000000
    14  H    4.418855   4.423641   4.440633   0.000000
    15  H    5.239566   4.606432   4.935487   1.773529   0.000000
    16  H    6.613060   6.448483   6.525954   2.202575   2.238499
    17  H    8.136263   7.839796   7.786786   3.785147   3.371377
    18  H    7.592402   7.691392   7.427095   3.327030   3.793851
    19  H    8.650489   8.352673   7.835425   4.889185   4.535719
    20  H    7.558350   7.372360   6.560200   4.498101   4.440419
    21  H    8.131264   8.204030   7.464124   4.544519   4.859673
    22  C    3.973594   2.797298   2.988571   3.375808   2.724854
    23  H    3.597601   2.381640   2.282841   4.136614   3.765365
    24  H    4.914389   3.846395   3.747491   3.639285   2.757602
    25  C    4.598501   3.071881   3.974433   4.092275   3.031666
    26  H    4.045825   2.442987   3.770663   4.334793   3.582884
    27  H    5.252227   3.891248   4.813411   3.822820   2.445840
    28  O    5.584059   3.913816   4.687711   5.381441   4.178194
    29  C    6.514379   4.775682   5.844950   6.358218   5.032118
    30  H    7.309499   5.548154   6.478970   7.289336   5.929978
    31  H    7.062653   5.400873   6.509324   6.275284   4.781813
    32  H    6.215385   4.467728   5.778074   6.605481   5.458934
                   16         17         18         19         20
    16  H    0.000000
    17  H    1.769421   0.000000
    18  H    1.768196   1.774399   0.000000
    19  H    3.724658   2.546141   3.103683   0.000000
    20  H    4.182923   3.708114   3.716001   1.787167   0.000000
    21  H    3.736595   3.121633   2.565722   1.778735   1.783461
    22  C    4.809346   5.757932   6.044924   5.963313   5.136837
    23  H    5.765031   6.725204   6.884474   6.699475   5.646218
    24  H    4.677695   5.307670   5.761744   5.176014   4.356216
    25  C    5.269201   6.225488   6.770368   6.816683   6.296726
    26  H    5.748805   6.916440   7.303391   7.699659   7.141861
    27  H    4.607017   5.502775   6.214757   6.393286   6.159160
    28  O    6.386190   7.091848   7.820376   7.380392   6.837665
    29  C    7.189783   7.867944   8.743613   8.391772   8.044164
    30  H    8.067684   8.604931   9.556029   8.908116   8.529652
    31  H    6.800083   7.379127   8.401588   8.113022   8.001525
    32  H    7.628599   8.495267   9.244463   9.186016   8.786760
                   21         22         23         24         25
    21  H    0.000000
    22  C    6.231378   0.000000
    23  H    6.846689   1.090688   0.000000
    24  H    5.629995   1.091062   1.744404   0.000000
    25  C    7.311942   1.531159   2.152875   2.160838   0.000000
    26  H    8.043866   2.178797   2.510031   3.078630   1.103552
    27  H    7.013482   2.178407   3.073036   2.537697   1.104027
    28  O    8.075296   2.372281   2.610902   2.595225   1.412299
    29  C    9.212536   3.672674   3.942425   3.933709   2.356446
    30  H    9.823234   4.397405   4.520683   4.501988   3.276069
    31  H    9.050640   4.050302   4.566017   4.209682   2.659293
    32  H    9.878014   4.052249   4.206414   4.559402   2.661021
                   26         27         28         29         30
    26  H    0.000000
    27  H    1.772337   0.000000
    28  O    2.080242   2.078501   0.000000
    29  C    2.636669   2.634696   1.412116   0.000000
    30  H    3.620678   3.617540   2.025866   1.092381   0.000000
    31  H    3.034363   2.457426   2.088636   1.101442   1.784255
    32  H    2.461859   3.035749   2.089054   1.101386   1.784262
                   31         32
    31  H    0.000000
    32  H    1.783934   0.000000
 Stoichiometry    C9H18N2O3
 Framework group  C1[X(C9H18N2O3)]
 Deg. of freedom    90
 Full point group                 C1      NOp   1
 Largest Abelian subgroup         C1      NOp   1
 Largest concise Abelian subgroup C1      NOp   1
                         Standard orientation:                         
 ---------------------------------------------------------------------
 Center     Atomic      Atomic             Coordinates (Angstroms)
 Number     Number       Type             X           Y           Z
 ---------------------------------------------------------------------
      1          6           0       -1.885036    2.723049   -0.554425
      2          6           0       -0.652388    2.159434    0.137034
      3          8           0        0.123893    2.897948    0.736520
      4          7           0       -0.438407    0.799353    0.046095
      5          6           0        0.761059    0.267105    0.664484
      6          6           0        1.774559   -0.243021   -0.379974
      7          8           0        1.515812   -0.208213   -1.578537
      8          7           0        2.954207   -0.753704    0.101743
      9          6           0        3.366526   -0.757849    1.495573
     10          6           0        3.942423   -1.256206   -0.842738
     11          1           0       -1.945045    3.779648   -0.296270
     12          1           0       -2.808878    2.223766   -0.248394
     13          1           0       -1.798581    2.628954   -1.642024
     14          1           0        1.192407    1.080483    1.252013
     15          1           0        0.502744   -0.550501    1.350300
     16          1           0        2.586711   -0.370490    2.147518
     17          1           0        3.607198   -1.778425    1.820142
     18          1           0        4.263518   -0.140202    1.635852
     19          1           0        4.208926   -2.292204   -0.599938
     20          1           0        3.516468   -1.211100   -1.843193
     21          1           0        4.855559   -0.648330   -0.808370
     22          6           0       -1.351443   -0.137352   -0.603191
     23          1           0       -1.889639    0.359634   -1.411245
     24          1           0       -0.761395   -0.926657   -1.071441
     25          6           0       -2.359739   -0.751089    0.372059
     26          1           0       -2.992076    0.034518    0.820164
     27          1           0       -1.835668   -1.252423    1.204459
     28          8           0       -3.141534   -1.674386   -0.356575
     29          6           0       -4.118873   -2.317758    0.433965
     30          1           0       -4.662359   -3.005544   -0.217856
     31          1           0       -3.665774   -2.891574    1.257744
     32          1           0       -4.832617   -1.599771    0.867687
 ---------------------------------------------------------------------
 Rotational constants (GHZ):      0.7950157      0.3755440      0.2949664
 Standard basis: 6-31G(d,p) (6D, 7F)
 There are   300 symmetry adapted basis functions of A   symmetry.
 Integral buffers will be    131072 words long.
 Raffenetti 2 integral format.
 Two-electron integral symmetry is turned on.
   300 basis functions,   518 primitive gaussians,   300 cartesian basis functions
    55 alpha electrons       55 beta electrons
       nuclear repulsion energy       956.7855610267 Hartrees.
 NAtoms=   32 NActive=   32 NUniq=   32 SFac= 1.00D+00 NAtFMM=   60 NAOKFM=F Big=F
 One-electron integrals computed using PRISM.
 NBasis=   300 RedAO= T  NBF=   300
 NBsUse=   300 1.00D-06 NBFU=   300
 Harris functional with IExCor=  402 diagonalized for initial guess.
 ExpMin= 1.61D-01 ExpMax= 5.48D+03 ExpMxC= 8.25D+02 IAcc=1 IRadAn=         1 AccDes= 0.00D+00
 HarFok:  IExCor=  402 AccDes= 0.00D+00 IRadAn=         1 IDoV= 1
 ScaDFX=  1.000000  1.000000  1.000000  1.000000
 FoFCou: FMM=F IPFlag=           0 FMFlag=      100000 FMFlg1=           0
         NFxFlg=           0 DoJE=T BraDBF=F KetDBF=T FulRan=T
         Omega=  0.000000  0.000000  1.000000  0.000000  0.000000 ICntrl=     500 IOpCl=  0
         NMat0=    1 NMatS0=    1 NMatT0=    0 NMatD0=    1 NMtDS0=    0 NMtDT0=    0
         I1Cent=           4 NGrid=           0.
 Petite list used in FoFCou.
 Initial guess orbital symmetries:
       Occupied  (A) (A) (A) (A) (A) (A) (A) (A) (A) (A) (A) (A)
                 (A) (A) (A) (A) (A) (A) (A) (A) (A) (A) (A) (A)
                 (A) (A) (A) (A) (A) (A) (A) (A) (A) (A) (A) (A)
                 (A) (A) (A) (A) (A) (A) (A) (A) (A) (A) (A) (A)
                 (A) (A) (A) (A) (A) (A) (A)
       Virtual   (A) (A) (A) (A) (A) (A) (A) (A) (A) (A) (A) (A)
                 (A) (A) (A) (A) (A) (A) (A) (A) (A) (A) (A) (A)
                 (A) (A) (A) (A) (A) (A) (A) (A) (A) (A) (A) (A)
                 (A) (A) (A) (A) (A) (A) (A) (A) (A) (A) (A) (A)
                 (A) (A) (A) (A) (A) (A) (A) (A) (A) (A) (A) (A)
                 (A) (A) (A) (A) (A) (A) (A) (A) (A) (A) (A) (A)
                 (A) (A) (A) (A) (A) (A) (A) (A) (A) (A) (A) (A)
                 (A) (A) (A) (A) (A) (A) (A) (A) (A) (A) (A) (A)
                 (A) (A) (A) (A) (A) (A) (A) (A) (A) (A) (A) (A)
                 (A) (A) (A) (A) (A) (A) (A) (A) (A) (A) (A) (A)
                 (A) (A) (A) (A) (A) (A) (A) (A) (A) (A) (A) (A)
                 (A) (A) (A) (A) (A) (A) (A) (A) (A) (A) (A) (A)
                 (A) (A) (A) (A) (A) (A) (A) (A) (A) (A) (A) (A)
                 (A) (A) (A) (A) (A) (A) (A) (A) (A) (A) (A) (A)
                 (A) (A) (A) (A) (A) (A) (A) (A) (A) (A) (A) (A)
                 (A) (A) (A) (A) (A) (A) (A) (A) (A) (A) (A) (A)
                 (A) (A) (A) (A) (A) (A) (A) (A) (A) (A) (A) (A)
                 (A) (A) (A) (A) (A) (A) (A) (A) (A) (A) (A) (A)
                 (A) (A) (A) (A) (A) (A) (A) (A) (A) (A) (A) (A)
                 (A) (A) (A) (A) (A) (A) (A) (A) (A) (A) (A) (A)
                 (A) (A) (A) (A) (A)
 The electronic state of the initial guess is 1-A.
 Requested convergence on RMS density matrix=1.00D-08 within 128 cycles.
 Requested convergence on MAX density matrix=1.00D-06.
 Requested convergence on             energy=1.00D-06.
 No special actions if energy rises.
 Keep R1 ints in memory in canonical form, NReq=1033485082.
 Integral accuracy reduced to 1.0D-05 until final iterations.
 Initial convergence to 1.0D-05 achieved.  Increase integral accuracy.
 SCF Done:  E(RB3LYP) =  -688.997149245     A.U. after   14 cycles
             Convg  =    0.6609D-08             -V/T =  2.0093

 **********************************************************************

            Population analysis using the SCF density.

 **********************************************************************

 Orbital symmetries:
       Occupied  (A) (A) (A) (A) (A) (A) (A) (A) (A) (A) (A) (A)
                 (A) (A) (A) (A) (A) (A) (A) (A) (A) (A) (A) (A)
                 (A) (A) (A) (A) (A) (A) (A) (A) (A) (A) (A) (A)
                 (A) (A) (A) (A) (A) (A) (A) (A) (A) (A) (A) (A)
                 (A) (A) (A) (A) (A) (A) (A)
       Virtual   (A) (A) (A) (A) (A) (A) (A) (A) (A) (A) (A) (A)
                 (A) (A) (A) (A) (A) (A) (A) (A) (A) (A) (A) (A)
                 (A) (A) (A) (A) (A) (A) (A) (A) (A) (A) (A) (A)
                 (A) (A) (A) (A) (A) (A) (A) (A) (A) (A) (A) (A)
                 (A) (A) (A) (A) (A) (A) (A) (A) (A) (A) (A) (A)
                 (A) (A) (A) (A) (A) (A) (A) (A) (A) (A) (A) (A)
                 (A) (A) (A) (A) (A) (A) (A) (A) (A) (A) (A) (A)
                 (A) (A) (A) (A) (A) (A) (A) (A) (A) (A) (A) (A)
                 (A) (A) (A) (A) (A) (A) (A) (A) (A) (A) (A) (A)
                 (A) (A) (A) (A) (A) (A) (A) (A) (A) (A) (A) (A)
                 (A) (A) (A) (A) (A) (A) (A) (A) (A) (A) (A) (A)
                 (A) (A) (A) (A) (A) (A) (A) (A) (A) (A) (A) (A)
                 (A) (A) (A) (A) (A) (A) (A) (A) (A) (A) (A) (A)
                 (A) (A) (A) (A) (A) (A) (A) (A) (A) (A) (A) (A)
                 (A) (A) (A) (A) (A) (A) (A) (A) (A) (A) (A) (A)
                 (A) (A) (A) (A) (A) (A) (A) (A) (A) (A) (A) (A)
                 (A) (A) (A) (A) (A) (A) (A) (A) (A) (A) (A) (A)
                 (A) (A) (A) (A) (A) (A) (A) (A) (A) (A) (A) (A)
                 (A) (A) (A) (A) (A) (A) (A) (A) (A) (A) (A) (A)
                 (A) (A) (A) (A) (A) (A) (A) (A) (A) (A) (A) (A)
                 (A) (A) (A) (A) (A)
 The electronic state is 1-A.
 Alpha  occ. eigenvalues --  -19.15459 -19.11008 -19.10357 -14.36848 -14.36048
 Alpha  occ. eigenvalues --  -10.28566 -10.28098 -10.23755 -10.23276 -10.23103
 Alpha  occ. eigenvalues --  -10.22608 -10.21776 -10.21407 -10.18561  -1.03869
 Alpha  occ. eigenvalues --   -1.03359  -1.02257  -0.93501  -0.92811  -0.77108
 Alpha  occ. eigenvalues --   -0.75214  -0.72993  -0.71607  -0.68462  -0.66828
 Alpha  occ. eigenvalues --   -0.62320  -0.56302  -0.53317  -0.51059  -0.50228
 Alpha  occ. eigenvalues --   -0.49467  -0.48156  -0.47218  -0.47086  -0.46162
 Alpha  occ. eigenvalues --   -0.45073  -0.43312  -0.42414  -0.41610  -0.41012
 Alpha  occ. eigenvalues --   -0.40770  -0.40669  -0.39000  -0.38634  -0.38381
 Alpha  occ. eigenvalues --   -0.37460  -0.35969  -0.35021  -0.34823  -0.32489
 Alpha  occ. eigenvalues --   -0.26156  -0.25407  -0.24377  -0.24092  -0.23235
 Alpha virt. eigenvalues --    0.02735   0.03230   0.07429   0.08525   0.09363
 Alpha virt. eigenvalues --    0.10701   0.11714   0.13152   0.13651   0.14421
 Alpha virt. eigenvalues --    0.14631   0.15433   0.15801   0.16382   0.16490
 Alpha virt. eigenvalues --    0.16736   0.17509   0.17933   0.18431   0.19322
 Alpha virt. eigenvalues --    0.20352   0.21321   0.21811   0.22268   0.23186
 Alpha virt. eigenvalues --    0.23692   0.25768   0.28499   0.28969   0.33869
 Alpha virt. eigenvalues --    0.34539   0.38534   0.40117   0.48255   0.49215
 Alpha virt. eigenvalues --    0.49607   0.50115   0.50912   0.51474   0.52847
 Alpha virt. eigenvalues --    0.54443   0.55623   0.55898   0.56025   0.57668
 Alpha virt. eigenvalues --    0.59402   0.60379   0.60969   0.64158   0.64836
 Alpha virt. eigenvalues --    0.66422   0.67897   0.69057   0.70033   0.71375
 Alpha virt. eigenvalues --    0.72203   0.73472   0.74883   0.75757   0.76807
 Alpha virt. eigenvalues --    0.77941   0.79173   0.79856   0.81473   0.82236
 Alpha virt. eigenvalues --    0.83666   0.83864   0.85309   0.85731   0.85784
 Alpha virt. eigenvalues --    0.86447   0.87544   0.87948   0.89130   0.89934
 Alpha virt. eigenvalues --    0.91094   0.91532   0.92958   0.93817   0.94111
 Alpha virt. eigenvalues --    0.95988   0.96659   0.98036   0.98539   1.01197
 Alpha virt. eigenvalues --    1.01937   1.03130   1.03824   1.05267   1.11195
 Alpha virt. eigenvalues --    1.13743   1.16050   1.17708   1.19396   1.21027
 Alpha virt. eigenvalues --    1.27362   1.29381   1.30074   1.30998   1.33059
 Alpha virt. eigenvalues --    1.34024   1.36155   1.36775   1.37506   1.38687
 Alpha virt. eigenvalues --    1.39976   1.45217   1.48016   1.49893   1.53549
 Alpha virt. eigenvalues --    1.56701   1.58414   1.61653   1.62941   1.65251
 Alpha virt. eigenvalues --    1.68586   1.70017   1.71746   1.73385   1.74528
 Alpha virt. eigenvalues --    1.75305   1.76494   1.77768   1.79622   1.81783
 Alpha virt. eigenvalues --    1.83590   1.85171   1.86445   1.87564   1.87938
 Alpha virt. eigenvalues --    1.88520   1.89617   1.90964   1.92082   1.93402
 Alpha virt. eigenvalues --    1.95755   1.97345   1.98447   1.99965   2.00619
 Alpha virt. eigenvalues --    2.01781   2.01903   2.02678   2.02850   2.02987
 Alpha virt. eigenvalues --    2.03302   2.03617   2.04009   2.04918   2.07311
 Alpha virt. eigenvalues --    2.07747   2.08476   2.10148   2.10688   2.11105
 Alpha virt. eigenvalues --    2.13421   2.13875   2.15490   2.16952   2.20016
 Alpha virt. eigenvalues --    2.22329   2.24227   2.25965   2.26344   2.29718
 Alpha virt. eigenvalues --    2.30415   2.33288   2.35916   2.38666   2.40679
 Alpha virt. eigenvalues --    2.41573   2.43791   2.44781   2.49451   2.50516
 Alpha virt. eigenvalues --    2.52050   2.53522   2.53721   2.56174   2.57234
 Alpha virt. eigenvalues --    2.58749   2.59854   2.61649   2.63065   2.64401
 Alpha virt. eigenvalues --    2.65508   2.67012   2.68694   2.69061   2.69840
 Alpha virt. eigenvalues --    2.70798   2.71556   2.75392   2.78208   2.79127
 Alpha virt. eigenvalues --    2.80518   2.82751   2.83435   2.84782   2.86479
 Alpha virt. eigenvalues --    2.88323   2.88704   2.89830   2.90894   2.92566
 Alpha virt. eigenvalues --    2.96041   2.97582   2.98581   3.04915   3.08627
 Alpha virt. eigenvalues --    3.12583   3.13639   3.14641   3.17190   3.18091
 Alpha virt. eigenvalues --    3.22989   3.26857   3.28140   3.32483   3.36941
 Alpha virt. eigenvalues --    3.37256   3.38649   3.41928   3.42739   3.43236
 Alpha virt. eigenvalues --    3.43685   3.43739   3.46295   3.48414   3.49450
 Alpha virt. eigenvalues --    3.55945   3.95127   4.00443   4.06614   4.12962
 Alpha virt. eigenvalues --    4.18872   4.32098   4.38445   4.39894   4.45234
 Alpha virt. eigenvalues --    4.49173   4.51787   4.63435   4.68261   4.73395
          Condensed to atoms (all electrons):
              1          2          3          4          5          6
     1  C    5.156600   0.348214  -0.081176  -0.120409   0.005702  -0.000136
     2  C    0.348214   4.355739   0.589127   0.260306  -0.029546   0.000632
     3  O   -0.081176   0.589127   8.074305  -0.096963  -0.014688  -0.000381
     4  N   -0.120409   0.260306  -0.096963   7.078793   0.285471  -0.045331
     5  C    0.005702  -0.029546  -0.014688   0.285471   5.122345   0.298107
     6  C   -0.000136   0.000632  -0.000381  -0.045331   0.298107   4.418666
     7  O   -0.000042   0.002106  -0.000049  -0.000874  -0.089723   0.580216
     8  N    0.000000   0.000046  -0.000020   0.002732  -0.112968   0.273114
     9  C    0.000000  -0.000003   0.000009   0.000336  -0.000527  -0.027362
    10  C    0.000000  -0.000001   0.000000  -0.000089   0.005364  -0.026134
    11  H    0.367896  -0.023417   0.005196   0.004652  -0.000124   0.000001
    12  H    0.356996  -0.020075   0.002046   0.001282  -0.000196  -0.000004
    13  H    0.366254  -0.021652   0.000912   0.002151  -0.000221   0.000040
    14  H    0.001596  -0.003643   0.034282  -0.040121   0.358346  -0.021217
    15  H   -0.000122   0.003128   0.000885  -0.044636   0.362941  -0.039307
    16  H   -0.000001  -0.000038  -0.000054   0.000152   0.009157  -0.009957
    17  H    0.000000   0.000000   0.000000  -0.000006  -0.000353   0.001594
    18  H    0.000000   0.000002   0.000000  -0.000006  -0.000297   0.000185
    19  H    0.000000   0.000000   0.000000   0.000001  -0.000118   0.001902
    20  H    0.000000  -0.000001   0.000000  -0.000011   0.001208  -0.002592
    21  H    0.000000   0.000000   0.000000   0.000002  -0.000107   0.000079
    22  C    0.000404  -0.024652   0.002504   0.252729  -0.044053  -0.003863
    23  H    0.007756  -0.009091   0.000087  -0.028684   0.004433   0.000083
    24  H   -0.000300   0.002930  -0.000076  -0.031726  -0.005411   0.004316
    25  C   -0.002023  -0.000668  -0.000024  -0.055015  -0.003874   0.000040
    26  H   -0.000964   0.002250  -0.000062   0.002797   0.000067  -0.000007
    27  H    0.000137  -0.000215  -0.000002   0.001530   0.000695   0.000147
    28  O    0.000011   0.000014   0.000000   0.002171   0.000008   0.000001
    29  C    0.000001  -0.000002   0.000000  -0.000131  -0.000001   0.000000
    30  H    0.000000   0.000000   0.000000   0.000001   0.000000   0.000000
    31  H    0.000000   0.000000   0.000000   0.000012  -0.000003   0.000000
    32  H   -0.000002   0.000000   0.000000   0.000008   0.000000   0.000000
              7          8          9         10         11         12
     1  C   -0.000042   0.000000   0.000000   0.000000   0.367896   0.356996
     2  C    0.002106   0.000046  -0.000003  -0.000001  -0.023417  -0.020075
     3  O   -0.000049  -0.000020   0.000009   0.000000   0.005196   0.002046
     4  N   -0.000874   0.002732   0.000336  -0.000089   0.004652   0.001282
     5  C   -0.089723  -0.112968  -0.000527   0.005364  -0.000124  -0.000196
     6  C    0.580216   0.273114  -0.027362  -0.026134   0.000001  -0.000004
     7  O    8.088612  -0.091524   0.002692  -0.012482   0.000000   0.000001
     8  N   -0.091524   7.017756   0.300840   0.291686   0.000000   0.000000
     9  C    0.002692   0.300840   4.804203  -0.051886   0.000000   0.000000
    10  C   -0.012482   0.291686  -0.051886   4.819345   0.000000   0.000000
    11  H    0.000000   0.000000   0.000000   0.000000   0.548331  -0.023504
    12  H    0.000001   0.000000   0.000000   0.000000  -0.023504   0.588276
    13  H    0.000027   0.000000   0.000000   0.000000  -0.021210  -0.028825
    14  H    0.000767   0.000939  -0.001628  -0.000172  -0.000037  -0.000064
    15  H    0.001149   0.003272  -0.002169  -0.000265   0.000004   0.000009
    16  H    0.000079  -0.027997   0.384804   0.004274   0.000000   0.000000
    17  H   -0.000035  -0.045692   0.382834  -0.002553   0.000000   0.000000
    18  H   -0.000023  -0.045235   0.384225  -0.002074   0.000000   0.000000
    19  H    0.000664  -0.045061  -0.001910   0.384698   0.000000   0.000000
    20  H    0.024145  -0.036098   0.004315   0.383560   0.000000   0.000000
    21  H    0.000634  -0.044992  -0.001721   0.387819   0.000000   0.000000
    22  C   -0.002179   0.000184  -0.000005  -0.000005   0.000293  -0.000354
    23  H    0.000065  -0.000003   0.000000   0.000000   0.000014  -0.002347
    24  H    0.011781  -0.000347  -0.000009   0.000027  -0.000009   0.000188
    25  C    0.000413   0.000021  -0.000002   0.000000   0.000018  -0.000163
    26  H   -0.000005   0.000000   0.000000   0.000000  -0.000041   0.004164
    27  H    0.000022  -0.000009   0.000001   0.000000   0.000000  -0.000113
    28  O    0.000000   0.000000   0.000000   0.000000   0.000000  -0.000077
    29  C    0.000000   0.000000   0.000000   0.000000   0.000000  -0.000004
    30  H    0.000000   0.000000   0.000000   0.000000   0.000000   0.000000
    31  H    0.000000   0.000000   0.000000   0.000000   0.000000   0.000000
    32  H    0.000000   0.000000   0.000000   0.000000   0.000000   0.000007
             13         14         15         16         17         18
     1  C    0.366254   0.001596  -0.000122  -0.000001   0.000000   0.000000
     2  C   -0.021652  -0.003643   0.003128  -0.000038   0.000000   0.000002
     3  O    0.000912   0.034282   0.000885  -0.000054   0.000000   0.000000
     4  N    0.002151  -0.040121  -0.044636   0.000152  -0.000006  -0.000006
     5  C   -0.000221   0.358346   0.362941   0.009157  -0.000353  -0.000297
     6  C    0.000040  -0.021217  -0.039307  -0.009957   0.001594   0.000185
     7  O    0.000027   0.000767   0.001149   0.000079  -0.000035  -0.000023
     8  N    0.000000   0.000939   0.003272  -0.027997  -0.045692  -0.045235
     9  C    0.000000  -0.001628  -0.002169   0.384804   0.382834   0.384225
    10  C    0.000000  -0.000172  -0.000265   0.004274  -0.002553  -0.002074
    11  H   -0.021210  -0.000037   0.000004   0.000000   0.000000   0.000000
    12  H   -0.028825  -0.000064   0.000009   0.000000   0.000000   0.000000
    13  H    0.560714  -0.000039  -0.000009   0.000000   0.000000   0.000000
    14  H   -0.000039   0.520320  -0.025975   0.000314   0.000002   0.000344
    15  H   -0.000009  -0.025975   0.619479   0.000649   0.000273   0.000064
    16  H    0.000000   0.000314   0.000649   0.564667  -0.027768  -0.028284
    17  H    0.000000   0.000002   0.000273  -0.027768   0.615906  -0.047424
    18  H    0.000000   0.000344   0.000064  -0.028284  -0.047424   0.609246
    19  H    0.000000  -0.000007   0.000028   0.000012   0.006821  -0.001946
    20  H    0.000000  -0.000021  -0.000041  -0.000241  -0.000029  -0.000085
    21  H    0.000000   0.000021  -0.000009  -0.000012  -0.001945   0.007106
    22  C   -0.002928   0.004364   0.000287   0.000010   0.000000   0.000000
    23  H    0.001781  -0.000212  -0.000081   0.000000   0.000000   0.000000
    24  H    0.000132   0.000118  -0.002454  -0.000001   0.000004  -0.000001
    25  C    0.000115   0.000037   0.002358  -0.000001   0.000000   0.000000
    26  H    0.000056  -0.000011  -0.000235   0.000000   0.000000   0.000000
    27  H   -0.000007  -0.000085   0.003111  -0.000005   0.000000   0.000000
    28  O   -0.000004   0.000000  -0.000117   0.000000   0.000000   0.000000
    29  C    0.000000   0.000000   0.000005   0.000000   0.000000   0.000000
    30  H    0.000000   0.000000   0.000000   0.000000   0.000000   0.000000
    31  H    0.000000   0.000000   0.000005   0.000000   0.000000   0.000000
    32  H    0.000000   0.000000   0.000000   0.000000   0.000000   0.000000
             19         20         21         22         23         24
     1  C    0.000000   0.000000   0.000000   0.000404   0.007756  -0.000300
     2  C    0.000000  -0.000001   0.000000  -0.024652  -0.009091   0.002930
     3  O    0.000000   0.000000   0.000000   0.002504   0.000087  -0.000076
     4  N    0.000001  -0.000011   0.000002   0.252729  -0.028684  -0.031726
     5  C   -0.000118   0.001208  -0.000107  -0.044053   0.004433  -0.005411
     6  C    0.001902  -0.002592   0.000079  -0.003863   0.000083   0.004316
     7  O    0.000664   0.024145   0.000634  -0.002179   0.000065   0.011781
     8  N   -0.045061  -0.036098  -0.044992   0.000184  -0.000003  -0.000347
     9  C   -0.001910   0.004315  -0.001721  -0.000005   0.000000  -0.000009
    10  C    0.384698   0.383560   0.387819  -0.000005   0.000000   0.000027
    11  H    0.000000   0.000000   0.000000   0.000293   0.000014  -0.000009
    12  H    0.000000   0.000000   0.000000  -0.000354  -0.002347   0.000188
    13  H    0.000000   0.000000   0.000000  -0.002928   0.001781   0.000132
    14  H   -0.000007  -0.000021   0.000021   0.004364  -0.000212   0.000118
    15  H    0.000028  -0.000041  -0.000009   0.000287  -0.000081  -0.002454
    16  H    0.000012  -0.000241  -0.000012   0.000010   0.000000  -0.000001
    17  H    0.006821  -0.000029  -0.001945   0.000000   0.000000   0.000004
    18  H   -0.001946  -0.000085   0.007106   0.000000   0.000000  -0.000001
    19  H    0.614300  -0.023842  -0.044917   0.000000   0.000000   0.000002
    20  H   -0.023842   0.512816  -0.025063  -0.000005   0.000000   0.000008
    21  H   -0.044917  -0.025063   0.608934   0.000000   0.000000  -0.000001
    22  C    0.000000  -0.000005   0.000000   4.907190   0.378468   0.376530
    23  H    0.000000   0.000000   0.000000   0.378468   0.590517  -0.027088
    24  H    0.000002   0.000008  -0.000001   0.376530  -0.027088   0.567657
    25  C    0.000000   0.000000   0.000000   0.350849  -0.044564  -0.045138
    26  H    0.000000   0.000000   0.000000  -0.037516  -0.008635   0.006089
    27  H    0.000000   0.000000   0.000000  -0.041197   0.006507  -0.007047
    28  O    0.000000   0.000000   0.000000  -0.039888   0.005371   0.005561
    29  C    0.000000   0.000000   0.000000   0.004317  -0.000100  -0.000096
    30  H    0.000000   0.000000   0.000000  -0.000247   0.000009   0.000007
    31  H    0.000000   0.000000   0.000000   0.000031   0.000047  -0.000055
    32  H    0.000000   0.000000   0.000000   0.000028  -0.000066   0.000045
             25         26         27         28         29         30
     1  C   -0.002023  -0.000964   0.000137   0.000011   0.000001   0.000000
     2  C   -0.000668   0.002250  -0.000215   0.000014  -0.000002   0.000000
     3  O   -0.000024  -0.000062  -0.000002   0.000000   0.000000   0.000000
     4  N   -0.055015   0.002797   0.001530   0.002171  -0.000131   0.000001
     5  C   -0.003874   0.000067   0.000695   0.000008  -0.000001   0.000000
     6  C    0.000040  -0.000007   0.000147   0.000001   0.000000   0.000000
     7  O    0.000413  -0.000005   0.000022   0.000000   0.000000   0.000000
     8  N    0.000021   0.000000  -0.000009   0.000000   0.000000   0.000000
     9  C   -0.000002   0.000000   0.000001   0.000000   0.000000   0.000000
    10  C    0.000000   0.000000   0.000000   0.000000   0.000000   0.000000
    11  H    0.000018  -0.000041   0.000000   0.000000   0.000000   0.000000
    12  H   -0.000163   0.004164  -0.000113  -0.000077  -0.000004   0.000000
    13  H    0.000115   0.000056  -0.000007  -0.000004   0.000000   0.000000
    14  H    0.000037  -0.000011  -0.000085   0.000000   0.000000   0.000000
    15  H    0.002358  -0.000235   0.003111  -0.000117   0.000005   0.000000
    16  H   -0.000001   0.000000  -0.000005   0.000000   0.000000   0.000000
    17  H    0.000000   0.000000   0.000000   0.000000   0.000000   0.000000
    18  H    0.000000   0.000000   0.000000   0.000000   0.000000   0.000000
    19  H    0.000000   0.000000   0.000000   0.000000   0.000000   0.000000
    20  H    0.000000   0.000000   0.000000   0.000000   0.000000   0.000000
    21  H    0.000000   0.000000   0.000000   0.000000   0.000000   0.000000
    22  C    0.350849  -0.037516  -0.041197  -0.039888   0.004317  -0.000247
    23  H   -0.044564  -0.008635   0.006507   0.005371  -0.000100   0.000009
    24  H   -0.045138   0.006089  -0.007047   0.005561  -0.000096   0.000007
    25  C    4.802635   0.356872   0.361845   0.231928  -0.033836   0.005355
    26  H    0.356872   0.692157  -0.062577  -0.038985  -0.006499  -0.000111
    27  H    0.361845  -0.062577   0.694442  -0.039119  -0.006316  -0.000110
    28  O    0.231928  -0.038985  -0.039119   8.203703   0.258873  -0.032864
    29  C   -0.033836  -0.006499  -0.006316   0.258873   4.708183   0.394811
    30  H    0.005355  -0.000111  -0.000110  -0.032864   0.394811   0.584812
    31  H   -0.009287  -0.002719   0.013570  -0.037635   0.369649  -0.034887
    32  H   -0.009131   0.013436  -0.002777  -0.037599   0.370238  -0.034977
             31         32
     1  C    0.000000  -0.000002
     2  C    0.000000   0.000000
     3  O    0.000000   0.000000
     4  N    0.000012   0.000008
     5  C   -0.000003   0.000000
     6  C    0.000000   0.000000
     7  O    0.000000   0.000000
     8  N    0.000000   0.000000
     9  C    0.000000   0.000000
    10  C    0.000000   0.000000
    11  H    0.000000   0.000000
    12  H    0.000000   0.000007
    13  H    0.000000   0.000000
    14  H    0.000000   0.000000
    15  H    0.000005   0.000000
    16  H    0.000000   0.000000
    17  H    0.000000   0.000000
    18  H    0.000000   0.000000
    19  H    0.000000   0.000000
    20  H    0.000000   0.000000
    21  H    0.000000   0.000000
    22  C    0.000031   0.000028
    23  H    0.000047  -0.000066
    24  H   -0.000055   0.000045
    25  C   -0.009287  -0.009131
    26  H   -0.002719   0.013436
    27  H    0.013570  -0.002777
    28  O   -0.037635  -0.037599
    29  C    0.369649   0.370238
    30  H   -0.034887  -0.034977
    31  H    0.662961  -0.052812
    32  H   -0.052812   0.661306
 Mulliken atomic charges:
              1
     1  C   -0.406395
     2  C    0.568512
     3  O   -0.515858
     4  N   -0.431125
     5  C   -0.151636
     6  C    0.597166
     7  O   -0.516437
     8  N   -0.440645
     9  C   -0.177036
    10  C   -0.181111
    11  H    0.141936
    12  H    0.122758
    13  H    0.142712
    14  H    0.171783
    15  H    0.117774
    16  H    0.130241
    17  H    0.118371
    18  H    0.124204
    19  H    0.109372
    20  H    0.161978
    21  H    0.114172
    22  C   -0.081299
    23  H    0.125733
    24  H    0.144363
    25  C    0.091240
    26  H    0.080479
    27  H    0.077570
    28  O   -0.481354
    29  C   -0.059090
    30  H    0.118203
    31  H    0.091124
    32  H    0.092297
 Sum of Mulliken atomic charges =   0.00000
 Mulliken charges with hydrogens summed into heavy atoms:
              1
     1  C    0.001011
     2  C    0.568512
     3  O   -0.515858
     4  N   -0.431125
     5  C    0.137920
     6  C    0.597166
     7  O   -0.516437
     8  N   -0.440645
     9  C    0.195779
    10  C    0.204410
    22  C    0.188798
    25  C    0.249289
    28  O   -0.481354
    29  C    0.242533
 Sum of Mulliken charges with hydrogens summed into heavy atoms =   0.00000
 Electronic spatial extent (au):  <R**2>=           3965.2090
 Charge=              0.0000 electrons
 Dipole moment (field-independent basis, Debye):
    X=             -0.1571    Y=             -3.0849    Z=              2.5491  Tot=              4.0049
 Quadrupole moment (field-independent basis, Debye-Ang):
   XX=            -67.3818   YY=            -91.3667   ZZ=            -87.3408
   XY=             -5.5053   XZ=              2.2047   YZ=             -7.1852
 Traceless Quadrupole moment (field-independent basis, Debye-Ang):
   XX=             14.6480   YY=             -9.3370   ZZ=             -5.3110
   XY=             -5.5053   XZ=              2.2047   YZ=             -7.1852
 Octapole moment (field-independent basis, Debye-Ang**2):
  XXX=             18.4442  YYY=            -33.8756  ZZZ=              3.6809  XYY=            -16.8357
  XXY=            -19.4436  XXZ=             16.5000  XZZ=              0.6031  YZZ=             -2.2600
  YYZ=            -13.2056  XYZ=              7.0642
 Hexadecapole moment (field-independent basis, Debye-Ang**3):
 XXXX=          -3003.9686 YYYY=          -1427.5978 ZZZZ=           -452.6059 XXXY=             43.8955
 XXXZ=            -30.2112 YYYX=             -1.0512 YYYZ=            -40.3456 ZZZX=             18.6388
 ZZZY=              2.9691 XXYY=           -701.0788 XXZZ=           -616.8189 YYZZ=           -306.3816
 XXYZ=            -11.6629 YYXZ=             -9.1280 ZZXY=             -3.5219
 N-N= 9.567855610267D+02 E-N=-3.519423062383D+03  KE= 6.826175113733D+02
 Calling FoFJK, ICntrl=      2127 FMM=F ISym2X=0 I1Cent= 0 IOpClX= 0 NMat=1 NMatS=1 NMatT=0.
 ***** Axes restored to original set *****
 -------------------------------------------------------------------
 Center     Atomic                   Forces (Hartrees/Bohr)
 Number     Number              X              Y              Z
 -------------------------------------------------------------------
      1        6           0.000002005   -0.000001458    0.000001838
      2        6          -0.000581625    0.000152325    0.001000390
      3        8          -0.000000538    0.000002802    0.000001585
      4        7           0.000671266    0.000135647   -0.001418542
      5        6           0.000330415   -0.001194921    0.000387973
      6        6          -0.000416254    0.000904654    0.000040474
      7        8          -0.000001024   -0.000001701   -0.000003549
      8        7          -0.000001795    0.000000672   -0.000000748
      9        6           0.000000436    0.000001751    0.000000045
     10        6           0.000000275    0.000001040   -0.000000951
     11        1           0.000000911   -0.000001403    0.000004537
     12        1           0.000000293   -0.000001020    0.000002482
     13        1           0.000001043   -0.000002424    0.000003715
     14        1           0.000000102    0.000002785    0.000001430
     15        1           0.000000282    0.000001267    0.000000522
     16        1           0.000000482    0.000003930    0.000000188
     17        1          -0.000001399    0.000003327   -0.000001370
     18        1          -0.000000257    0.000002905    0.000000085
     19        1          -0.000000664    0.000000166   -0.000001944
     20        1          -0.000000415   -0.000001146   -0.000001123
     21        1           0.000000265    0.000000213    0.000000567
     22        6           0.000000103   -0.000000134    0.000002169
     23        1           0.000000702   -0.000002417   -0.000001314
     24        1          -0.000000207   -0.000002507   -0.000001911
     25        6          -0.000000286   -0.000000897   -0.000001613
     26        1          -0.000000029    0.000000763   -0.000000200
     27        1          -0.000000235    0.000000706   -0.000001053
     28        8          -0.000000112   -0.000001928   -0.000000819
     29        6          -0.000000958   -0.000001327   -0.000002507
     30        1          -0.000001404   -0.000001519   -0.000003945
     31        1          -0.000000968    0.000000107   -0.000003963
     32        1          -0.000000409   -0.000000257   -0.000002450
 -------------------------------------------------------------------
 Cartesian Forces:  Max     0.001418542 RMS     0.000260700

 GradGradGradGradGradGradGradGradGradGradGradGradGradGradGradGradGradGrad
 Berny optimization.
 Internal  Forces:  Max     0.001002818 RMS     0.000136465
 Search for a local minimum.
 Step number   1 out of a maximum of  155 on scan point     1 out of    37
 All quantities printed in internal units (Hartrees-Bohrs-Radians)
 Mixed Optimization -- En-DIIS/RFO-DIIS
 Second derivative matrix not updated -- first step.
 ITU=  0
     Eigenvalues ---    0.00354   0.00481   0.00682   0.00893   0.00946
     Eigenvalues ---    0.00984   0.01080   0.01166   0.01275   0.01529
     Eigenvalues ---    0.01532   0.01959   0.02052   0.02936   0.04133
     Eigenvalues ---    0.05325   0.05443   0.05847   0.06443   0.06928
     Eigenvalues ---    0.07295   0.07456   0.07472   0.07479   0.07659
     Eigenvalues ---    0.09489   0.09873   0.10035   0.10508   0.10740
     Eigenvalues ---    0.11129   0.12899   0.13623   0.16000   0.16000
     Eigenvalues ---    0.16000   0.16000   0.16000   0.16000   0.16000
     Eigenvalues ---    0.16000   0.16000   0.16000   0.16000   0.16000
     Eigenvalues ---    0.21914   0.21923   0.22018   0.24914   0.24954
     Eigenvalues ---    0.24990   0.24995   0.24995   0.24998   0.25000
     Eigenvalues ---    0.25000   0.25000   0.28327   0.29317   0.30215
     Eigenvalues ---    0.33241   0.33292   0.33523   0.33529   0.33896
     Eigenvalues ---    0.33907   0.33943   0.33960   0.34023   0.34232
     Eigenvalues ---    0.34376   0.34539   0.34563   0.34690   0.34733
     Eigenvalues ---    0.34890   0.35011   0.35074   0.36920   0.37418
     Eigenvalues ---    0.37785   0.38159   0.43642   0.43670   0.49137
     Eigenvalues ---    0.50453   0.92025   0.924891000.000001000.00000
     Eigenvalues --- 1000.000001000.000001000.000001000.000001000.00000
     Eigenvalues --- 1000.000001000.000001000.000001000.000001000.00000
     Eigenvalues --- 1000.000001000.000001000.000001000.000001000.00000
     Eigenvalues --- 1000.000001000.000001000.000001000.000001000.00000
     Eigenvalues --- 1000.000001000.000001000.000001000.000001000.00000
     Eigenvalues --- 1000.000001000.000001000.000001000.000001000.00000
     Eigenvalues --- 1000.000001000.000001000.000001000.000001000.00000
     Eigenvalues --- 1000.000001000.000001000.000001000.000001000.00000
     Eigenvalues --- 1000.000001000.000001000.000001000.000001000.00000
     Eigenvalues --- 1000.000001000.000001000.000001000.000001000.00000
     Eigenvalues --- 1000.000001000.000001000.000001000.000001000.00000
 RFO step:  Lambda= 0.00000000D+00 EMin= 3.53779615D-03
 Linear search not attempted -- first point.
 Iteration  1 RMS(Cart)=  0.00002682 RMS(Int)=  0.00000000
 Iteration  2 RMS(Cart)=  0.00000000 RMS(Int)=  0.00000000
 Iteration  1 RMS(Cart)=  0.00000000 RMS(Int)=  0.00000000
 Variable       Old X    -DE/DX   Delta X   Delta X   Delta X     New X
                                 (Linear)    (Quad)   (Total)
    R1        2.87537   0.00000   0.00000   0.00000   0.00000   2.87536
    R2        2.05854   0.00000   0.00000   0.00000   0.00000   2.05854
    R3        2.06700   0.00000   0.00000   0.00000   0.00000   2.06700
    R4        2.06940   0.00000   0.00000   0.00000   0.00000   2.06940
    R5        2.32013   0.00000   0.00000   0.00000   0.00000   2.32014
    R6        2.60746   0.00000   0.00000  -0.00001  -0.00001   2.60746
    R7        2.74135   0.00000   0.00000  -0.00001  -0.00001   2.74134
    R8        2.75966   0.00000   0.00000   0.00000   0.00000   2.75966
    R9        2.91429   0.00000   0.00000   0.00000   0.00000   2.91429
   R10        2.06390   0.00000   0.00000   0.00000   0.00000   2.06390
   R11        2.07487   0.00000   0.00000   0.00000   0.00000   2.07487
   R12        2.31807   0.00000   0.00000   0.00000   0.00000   2.31806
   R13        2.59410   0.00000   0.00000   0.00000   0.00000   2.59411
   R14        2.74680   0.00000   0.00000   0.00000   0.00000   2.74680
   R15        2.75221   0.00000   0.00000   0.00000   0.00000   2.75221
   R16        2.05554   0.00000   0.00000   0.00000   0.00000   2.05554
   R17        2.07426   0.00000   0.00000   0.00000   0.00000   2.07426
   R18        2.07505   0.00000   0.00000   0.00000   0.00000   2.07505
   R19        2.07291   0.00000   0.00000   0.00000   0.00000   2.07291
   R20        2.05658   0.00000   0.00000   0.00000   0.00000   2.05658
   R21        2.07398   0.00000   0.00000   0.00000   0.00000   2.07398
   R22        2.06110   0.00000   0.00000   0.00000   0.00000   2.06110
   R23        2.06181   0.00000   0.00000   0.00000   0.00000   2.06181
   R24        2.89347   0.00000   0.00000   0.00000   0.00000   2.89347
   R25        2.08541   0.00000   0.00000   0.00000   0.00000   2.08541
   R26        2.08631   0.00000   0.00000   0.00000   0.00000   2.08631
   R27        2.66886   0.00000   0.00000   0.00000   0.00000   2.66886
   R28        2.66851   0.00000   0.00000   0.00000   0.00000   2.66851
   R29        2.06430   0.00000   0.00000   0.00000   0.00000   2.06430
   R30        2.08142   0.00000   0.00000   0.00000   0.00000   2.08143
   R31        2.08132   0.00000   0.00000   0.00000   0.00000   2.08132
    A1        1.87153   0.00000   0.00000   0.00000   0.00000   1.87152
    A2        1.96926   0.00000   0.00000   0.00000   0.00000   1.96926
    A3        1.93429   0.00000   0.00000   0.00000   0.00000   1.93430
    A4        1.90701   0.00000   0.00000   0.00000   0.00000   1.90701
    A5        1.89976   0.00000   0.00000   0.00000   0.00000   1.89975
    A6        1.88108   0.00000   0.00000   0.00000   0.00000   1.88108
    A7        2.10748   0.00000   0.00000   0.00000   0.00000   2.10748
    A8        2.04969   0.00000   0.00000   0.00000   0.00000   2.04969
    A9        2.12591   0.00000   0.00000   0.00000   0.00000   2.12591
   A10        2.05080  -0.00001   0.00000   0.00000   0.00000   2.05080
   A11        2.17074   0.00001   0.00000   0.00000   0.00000   2.17074
   A12        2.06139   0.00000   0.00000   0.00000   0.00000   2.06139
   A13        1.95633   0.00002   0.00000   0.00000   0.00000   1.95633
   A14        1.85733  -0.00004   0.00000   0.00000   0.00000   1.85733
   A15        1.92298   0.00003   0.00000  -0.00001  -0.00001   1.92297
   A16        1.92957  -0.00047   0.00000   0.00000   0.00000   1.92957
   A17        1.90851   0.00045   0.00000   0.00000   0.00000   1.90850
   A18        1.88754   0.00000   0.00000   0.00001   0.00001   1.88755
   A19        2.11033   0.00000   0.00000   0.00001   0.00001   2.11034
   A20        2.03772   0.00000   0.00000  -0.00001  -0.00001   2.03771
   A21        2.13495   0.00000   0.00000   0.00000   0.00000   2.13495
   A22        2.19115   0.00000   0.00000  -0.00001  -0.00001   2.19115
   A23        2.07587   0.00000   0.00000   0.00000   0.00000   2.07587
   A24        2.01352   0.00000   0.00000   0.00001   0.00001   2.01352
   A25        1.95019   0.00000   0.00000  -0.00001  -0.00001   1.95018
   A26        1.92665   0.00000   0.00000   0.00000   0.00000   1.92666
   A27        1.93116   0.00000   0.00000   0.00000   0.00000   1.93117
   A28        1.88712   0.00000   0.00000   0.00001   0.00001   1.88712
   A29        1.88468   0.00000   0.00000   0.00000   0.00000   1.88468
   A30        1.88189   0.00000   0.00000   0.00000   0.00000   1.88189
   A31        1.92535   0.00000   0.00000   0.00000   0.00000   1.92535
   A32        1.89261   0.00000   0.00000   0.00000   0.00000   1.89261
   A33        1.93172   0.00000   0.00000   0.00000   0.00000   1.93172
   A34        1.91528   0.00000   0.00000   0.00000   0.00000   1.91528
   A35        1.89023   0.00000   0.00000   0.00000   0.00000   1.89023
   A36        1.90867   0.00000   0.00000   0.00000   0.00000   1.90866
   A37        1.92371   0.00000   0.00000   0.00000   0.00000   1.92371
   A38        1.89306   0.00000   0.00000   0.00000   0.00000   1.89307
   A39        1.96669   0.00000   0.00000   0.00000   0.00000   1.96669
   A40        1.85307   0.00000   0.00000   0.00001   0.00001   1.85308
   A41        1.90666   0.00000   0.00000  -0.00001  -0.00001   1.90665
   A42        1.91719   0.00000   0.00000   0.00000   0.00000   1.91719
   A43        1.92903   0.00000   0.00000   0.00000   0.00000   1.92902
   A44        1.92800   0.00000   0.00000   0.00000   0.00000   1.92800
   A45        1.87336   0.00000   0.00000   0.00000   0.00000   1.87336
   A46        1.86409   0.00000   0.00000   0.00000   0.00000   1.86410
   A47        1.93660   0.00000   0.00000   0.00001   0.00001   1.93661
   A48        1.93359   0.00000   0.00000   0.00000   0.00000   1.93359
   A49        1.97377   0.00000   0.00000  -0.00001  -0.00001   1.97376
   A50        1.87251   0.00000   0.00000   0.00000   0.00000   1.87251
   A51        1.95125   0.00000   0.00000   0.00000   0.00000   1.95125
   A52        1.95192   0.00000   0.00000   0.00000   0.00000   1.95192
   A53        1.89962   0.00000   0.00000   0.00000   0.00000   1.89962
   A54        1.89970   0.00000   0.00000   0.00000   0.00000   1.89970
   A55        1.88775   0.00000   0.00000   0.00000   0.00000   1.88775
    D1       -0.11112   0.00000   0.00000   0.00003   0.00003  -0.11109
    D2        3.04530   0.00000   0.00000   0.00000   0.00000   3.04530
    D3       -2.21169   0.00000   0.00000   0.00003   0.00003  -2.21166
    D4        0.94473   0.00000   0.00000   0.00000   0.00000   0.94473
    D5        1.96017   0.00000   0.00000   0.00003   0.00003   1.96020
    D6       -1.16660   0.00000   0.00000   0.00000   0.00000  -1.16660
    D7        3.10449  -0.00016   0.00000   0.00002   0.00002   3.10451
    D8       -0.06185   0.00016   0.00000   0.00001   0.00001  -0.06184
    D9       -0.02211  -0.00016   0.00000  -0.00001  -0.00001  -0.02213
   D10        3.09473   0.00016   0.00000  -0.00003  -0.00003   3.09471
   D11       -1.94307   0.00100   0.00000   0.00000   0.00000  -1.94307
   D12        0.16829   0.00041   0.00000   0.00000   0.00000   0.16829
   D13        2.21059   0.00040   0.00000   0.00001   0.00001   2.21060
   D14        1.22167   0.00069   0.00000   0.00001   0.00001   1.22169
   D15       -2.95015   0.00010   0.00000   0.00001   0.00001  -2.95013
   D16       -0.90785   0.00009   0.00000   0.00002   0.00002  -0.90783
   D17        0.52036  -0.00017   0.00000   0.00001   0.00001   0.52037
   D18        2.54223  -0.00016   0.00000   0.00003   0.00003   2.54226
   D19       -1.61450  -0.00017   0.00000   0.00002   0.00002  -1.61448
   D20       -2.64612   0.00016   0.00000   0.00000   0.00000  -2.64612
   D21       -0.62425   0.00017   0.00000   0.00002   0.00002  -0.62423
   D22        1.50221   0.00017   0.00000   0.00001   0.00001   1.50222
   D23       -0.03356  -0.00024   0.00000   0.00001   0.00001  -0.03355
   D24        3.12854  -0.00024   0.00000   0.00000   0.00000   3.12854
   D25       -2.10268   0.00012   0.00000   0.00001   0.00001  -2.10267
   D26        1.05942   0.00012   0.00000   0.00000   0.00000   1.05942
   D27        2.10420   0.00012   0.00000   0.00000   0.00000   2.10420
   D28       -1.01688   0.00012   0.00000  -0.00001  -0.00001  -1.01689
   D29       -0.08812   0.00000   0.00000   0.00002   0.00002  -0.08810
   D30        3.13537   0.00000   0.00000   0.00001   0.00001   3.13537
   D31        3.07430   0.00000   0.00000   0.00001   0.00001   3.07430
   D32        0.01460   0.00000   0.00000   0.00000   0.00000   0.01459
   D33        0.07789   0.00000   0.00000   0.00000   0.00000   0.07788
   D34        2.17860   0.00000   0.00000   0.00000   0.00000   2.17860
   D35       -2.02281   0.00000   0.00000   0.00000   0.00000  -2.02281
   D36        3.14017   0.00000   0.00000   0.00001   0.00001   3.14017
   D37       -1.04231   0.00000   0.00000   0.00001   0.00001  -1.04230
   D38        1.03947   0.00000   0.00000   0.00001   0.00001   1.03948
   D39       -2.18029   0.00000   0.00000   0.00000   0.00000  -2.18029
   D40       -0.08240   0.00000   0.00000   0.00000   0.00000  -0.08241
   D41        2.01121   0.00000   0.00000  -0.00001  -0.00001   2.01120
   D42        1.03503   0.00000   0.00000  -0.00001  -0.00001   1.03502
   D43        3.13292   0.00000   0.00000  -0.00001  -0.00001   3.13291
   D44       -1.05665   0.00000   0.00000  -0.00001  -0.00001  -1.05667
   D45        1.07099   0.00000   0.00000   0.00000   0.00000   1.07099
   D46       -0.98823   0.00000   0.00000   0.00000   0.00000  -0.98823
   D47       -3.09808   0.00000   0.00000   0.00001   0.00001  -3.09807
   D48       -1.07344   0.00000   0.00000   0.00001   0.00001  -1.07343
   D49       -3.13265   0.00000   0.00000   0.00001   0.00001  -3.13264
   D50        1.04068   0.00000   0.00000   0.00001   0.00001   1.04070
   D51       -3.09945   0.00000   0.00000   0.00000   0.00000  -3.09945
   D52        1.12452   0.00000   0.00000   0.00000   0.00000   1.12452
   D53       -0.98533   0.00000   0.00000   0.00001   0.00001  -0.98532
   D54        3.14056   0.00000   0.00000  -0.00001  -0.00001   3.14056
   D55       -1.03327   0.00000   0.00000  -0.00001  -0.00001  -1.03328
   D56        1.03425   0.00000   0.00000   0.00000   0.00000   1.03425
   D57       -3.13999   0.00000   0.00000   0.00001   0.00001  -3.13998
   D58       -1.05857   0.00000   0.00000   0.00001   0.00001  -1.05856
   D59        1.06129   0.00000   0.00000   0.00001   0.00001   1.06130
         Item               Value     Threshold  Converged?
 Maximum Force            0.000004     0.000450     YES
 RMS     Force            0.000001     0.000300     YES
 Maximum Displacement     0.000091     0.001800     YES
 RMS     Displacement     0.000027     0.001200     YES
 Predicted change in Energy=-1.773512D-10
 Optimization completed.
    -- Stationary point found.
                           ----------------------------
                           !   Optimized Parameters   !
                           ! (Angstroms and Degrees)  !
 --------------------------                            --------------------------
 ! Name  Definition              Value          Derivative Info.                !
 --------------------------------------------------------------------------------
 ! R1    R(1,2)                  1.5216         -DE/DX =    0.0                 !
 ! R2    R(1,11)                 1.0893         -DE/DX =    0.0                 !
 ! R3    R(1,12)                 1.0938         -DE/DX =    0.0                 !
 ! R4    R(1,13)                 1.0951         -DE/DX =    0.0                 !
 ! R5    R(2,3)                  1.2278         -DE/DX =    0.0                 !
 ! R6    R(2,4)                  1.3798         -DE/DX =    0.0                 !
 ! R7    R(4,5)                  1.4507         -DE/DX =    0.0                 !
 ! R8    R(4,22)                 1.4604         -DE/DX =    0.0                 !
 ! R9    R(5,6)                  1.5422         -DE/DX =    0.0                 !
 ! R10   R(5,14)                 1.0922         -DE/DX =    0.0                 !
 ! R11   R(5,15)                 1.098          -DE/DX =    0.0                 !
 ! R12   R(6,7)                  1.2267         -DE/DX =    0.0                 !
 ! R13   R(6,8)                  1.3727         -DE/DX =    0.0                 !
 ! R14   R(8,9)                  1.4535         -DE/DX =    0.0                 !
 ! R15   R(8,10)                 1.4564         -DE/DX =    0.0                 !
 ! R16   R(9,16)                 1.0877         -DE/DX =    0.0                 !
 ! R17   R(9,17)                 1.0977         -DE/DX =    0.0                 !
 ! R18   R(9,18)                 1.0981         -DE/DX =    0.0                 !
 ! R19   R(10,19)                1.0969         -DE/DX =    0.0                 !
 ! R20   R(10,20)                1.0883         -DE/DX =    0.0                 !
 ! R21   R(10,21)                1.0975         -DE/DX =    0.0                 !
 ! R22   R(22,23)                1.0907         -DE/DX =    0.0                 !
 ! R23   R(22,24)                1.0911         -DE/DX =    0.0                 !
 ! R24   R(22,25)                1.5312         -DE/DX =    0.0                 !
 ! R25   R(25,26)                1.1036         -DE/DX =    0.0                 !
 ! R26   R(25,27)                1.104          -DE/DX =    0.0                 !
 ! R27   R(25,28)                1.4123         -DE/DX =    0.0                 !
 ! R28   R(28,29)                1.4121         -DE/DX =    0.0                 !
 ! R29   R(29,30)                1.0924         -DE/DX =    0.0                 !
 ! R30   R(29,31)                1.1014         -DE/DX =    0.0                 !
 ! R31   R(29,32)                1.1014         -DE/DX =    0.0                 !
 ! A1    A(2,1,11)             107.2305         -DE/DX =    0.0                 !
 ! A2    A(2,1,12)             112.8303         -DE/DX =    0.0                 !
 ! A3    A(2,1,13)             110.8269         -DE/DX =    0.0                 !
 ! A4    A(11,1,12)            109.2635         -DE/DX =    0.0                 !
 ! A5    A(11,1,13)            108.848          -DE/DX =    0.0                 !
 ! A6    A(12,1,13)            107.7781         -DE/DX =    0.0                 !
 ! A7    A(1,2,3)              120.75           -DE/DX =    0.0                 !
 ! A8    A(1,2,4)              117.4387         -DE/DX =    0.0                 !
 ! A9    A(3,2,4)              121.8056         -DE/DX =    0.0                 !
 ! A10   A(2,4,5)              117.5024         -DE/DX =    0.0                 !
 ! A11   A(2,4,22)             124.3743         -DE/DX =    0.0                 !
 ! A12   A(5,4,22)             118.1087         -DE/DX =    0.0                 !
 ! A13   A(4,5,6)              112.0893         -DE/DX =    0.0                 !
 ! A14   A(4,5,14)             106.4173         -DE/DX =    0.0                 !
 ! A15   A(4,5,15)             110.1787         -DE/DX =    0.0                 !
 ! A16   A(6,5,14)             110.5561         -DE/DX =   -0.0005              !
[...]
   D11       -1.94308   0.00033   0.00000   0.00000   0.00000  -1.94308
   D12        0.08226  -0.00023  -0.00010   0.00000  -0.00010   0.08216
   D13        2.12208  -0.00031  -0.00011   0.00000  -0.00011   2.12198
   D14        1.13826   0.00036  -0.00028  -0.00039  -0.00067   1.13759
   D15       -3.11959  -0.00020  -0.00038  -0.00039  -0.00077  -3.12036
   D16       -1.07977  -0.00028  -0.00039  -0.00039  -0.00078  -1.08055
   D17        0.47590   0.00002  -0.00028   0.00011  -0.00017   0.47573
   D18        2.51091   0.00002  -0.00026   0.00012  -0.00014   2.51077
   D19       -1.66254   0.00002  -0.00026   0.00011  -0.00015  -1.66269
   D20       -2.60108  -0.00002   0.00002   0.00053   0.00055  -2.60053
   D21       -0.56608  -0.00002   0.00005   0.00053   0.00058  -0.56550
   D22        1.54366  -0.00001   0.00005   0.00053   0.00057   1.54423
   D23        0.98160  -0.00112   0.00016  -0.00004   0.00012   0.98172
   D24       -2.10745  -0.00214   0.00000   0.00000   0.00000  -2.10745
   D25       -1.03347   0.00001   0.00027   0.00002   0.00029  -1.03318
   D26        2.16067  -0.00100   0.00011   0.00006   0.00017   2.16084
   D27       -3.12351   0.00003   0.00029  -0.00002   0.00027  -3.12323
   D28        0.07063  -0.00098   0.00013   0.00003   0.00015   0.07078
   D29       -0.17323   0.00052   0.00079  -0.00037   0.00042  -0.17280
   D30       -3.07478   0.00053   0.00034   0.00008   0.00042  -3.07436
   D31        3.02274  -0.00052   0.00063  -0.00032   0.00030   3.02305
   D32        0.12119  -0.00052   0.00018   0.00012   0.00030   0.12149
   D33        0.50195   0.00000   0.00109   0.00049   0.00158   0.50353
   D34        2.57363   0.00000   0.00102   0.00040   0.00141   2.57504
   D35       -1.63113   0.00000   0.00103   0.00038   0.00142  -1.62972
   D36       -2.87306   0.00000   0.00151   0.00006   0.00157  -2.87148
   D37       -0.80138   0.00000   0.00144  -0.00003   0.00141  -0.79997
   D38        1.27704   0.00000   0.00146  -0.00004   0.00142   1.27846
   D39       -2.31681   0.00000   0.00070  -0.00018   0.00052  -2.31629
   D40       -0.21928   0.00000   0.00069  -0.00014   0.00055  -0.21873
   D41        1.87512   0.00000   0.00067  -0.00014   0.00054   1.87566
   D42        1.03649   0.00000   0.00033   0.00022   0.00055   1.03704
   D43        3.13403   0.00000   0.00032   0.00025   0.00057   3.13461
   D44       -1.05476   0.00000   0.00031   0.00026   0.00056  -1.05419
   D45        1.09013   0.00000  -0.00015  -0.00008  -0.00023   1.08990
   D46       -0.96549   0.00000  -0.00014  -0.00007  -0.00022  -0.96571
   D47       -3.07800   0.00000  -0.00014  -0.00006  -0.00021  -3.07820
   D48       -1.06256   0.00000  -0.00015  -0.00006  -0.00021  -1.06277
   D49       -3.11817   0.00000  -0.00015  -0.00006  -0.00021  -3.11838
   D50        1.05251   0.00000  -0.00015  -0.00004  -0.00019   1.05231
   D51       -3.07954   0.00000  -0.00016  -0.00008  -0.00025  -3.07979
   D52        1.14803   0.00000  -0.00016  -0.00008  -0.00024   1.14779
   D53       -0.96447   0.00000  -0.00016  -0.00007  -0.00023  -0.96470
   D54       -3.12181   0.00000  -0.00001   0.00006   0.00005  -3.12176
   D55       -1.01595   0.00000  -0.00002   0.00006   0.00004  -1.01591
   D56        1.05444   0.00000  -0.00001   0.00008   0.00007   1.05451
   D57       -3.14069   0.00000  -0.00004  -0.00001  -0.00005  -3.14074
   D58       -1.05909   0.00000  -0.00004  -0.00002  -0.00006  -1.05915
   D59        1.06051   0.00000  -0.00004   0.00000  -0.00004   1.06047
         Item               Value     Threshold  Converged?
 Maximum Force            0.000023     0.000450     YES
 RMS     Force            0.000005     0.000300     YES
 Maximum Displacement     0.002577     0.001800     NO 
 RMS     Displacement     0.000540     0.001200     YES
 Predicted change in Energy=-2.066365D-08
 GradGradGradGradGradGradGradGradGradGradGradGradGradGradGradGradGradGrad

                          Input orientation:                          
 ---------------------------------------------------------------------
 Center     Atomic      Atomic             Coordinates (Angstroms)
 Number     Number       Type             X           Y           Z
 ---------------------------------------------------------------------
      1          6           0        2.043828    2.668580    0.895924
      2          6           0        0.791873    2.437794    0.061387
      3          8           0        0.198115    3.377690   -0.452677
      4          7           0        0.360980    1.132165   -0.089726
      5          6           0       -0.905699    0.910054   -0.777711
      6          6           0       -1.968413    0.389664    0.206597
      7          8           0       -2.216752    1.056343    1.204654
      8          7           0       -2.566657   -0.832412   -0.020150
      9          6           0       -2.454124   -1.640487   -1.226332
     10          6           0       -3.629772   -1.247774    0.890601
     11          1           0        2.293772    3.725679    0.814949
     12          1           0        2.895980    2.070752    0.559426
     13          1           0        1.860204    2.429668    1.948829
     14          1           0       -1.240161    1.888744   -1.127835
     15          1           0       -0.752781    0.271577   -1.650587
     16          1           0       -1.506506   -1.480205   -1.736497
     17          1           0       -2.503702   -2.698834   -0.950120
     18          1           0       -3.271229   -1.439745   -1.933872
     19          1           0       -3.463410   -2.282474    1.210187
     20          1           0       -3.620736   -0.586788    1.754590
     21          1           0       -4.611299   -1.190511    0.401385
     22          6           0        1.048178   -0.030203    0.459998
     23          1           0        1.613380    0.243969    1.351765
     24          1           0        0.305036   -0.766666    0.781466
     25          6           0        1.991303   -0.691883   -0.548923
     26          1           0        2.789838    0.010266   -0.842392
     27          1           0        1.444253   -0.956568   -1.470438
     28          8           0        2.528444   -1.843691    0.066316
     29          6           0        3.442333   -2.536992   -0.758537
     30          1           0        3.795335   -3.403415   -0.194815
     31          1           0        2.968849   -2.886740   -1.689395
     32          1           0        4.306978   -1.910461   -1.027247
 ---------------------------------------------------------------------
                    Distance matrix (angstroms):
                    1          2          3          4          5
     1  C    0.000000
     2  C    1.522204   0.000000
     3  O    2.393370   1.224833   0.000000
     4  N    2.482752   1.383175   2.280492   0.000000
     5  C    3.820102   2.433069   2.722734   1.458469   0.000000
     6  C    4.665481   3.440218   3.749238   2.462760   1.539165
     7  O    4.565870   3.502470   3.737243   2.885459   2.381183
     8  N    5.861119   4.688349   5.055295   3.526395   2.523662
     9  C    6.580547   5.369086   5.728439   4.111481   3.017307
    10  C    6.894026   5.815664   6.152400   4.748815   3.854875
    11  H    1.089259   2.117121   2.473813   3.358636   4.549826
    12  H    1.093980   2.193178   3.164003   2.780031   4.193796
    13  H    1.095174   2.168832   3.070590   2.843747   4.170548
    14  H    3.935521   2.417616   2.177484   2.052738   1.091918
    15  H    4.477875   3.163749   3.462243   2.101752   1.092222
    16  H    6.061924   4.885248   5.305946   3.608854   2.644537
    17  H    7.273036   6.186187   6.668689   4.860373   3.950622
    18  H    7.289438   5.960299   6.118657   4.817523   3.529022
    19  H    7.412245   6.458181   6.943295   5.289186   4.548171
    20  H    6.589538   5.611252   5.930661   4.712787   4.003063
    21  H    7.708948   6.517244   6.687926   5.509952   4.419741
    22  C    2.909430   2.513084   3.628956   1.457922   2.496726
    23  H    2.504360   2.674475   3.883194   2.106014   3.365130
    24  H    3.851937   3.320254   4.325533   2.089896   2.590040
    25  C    3.658286   3.406757   4.448170   2.489170   3.318309
    26  H    3.262654   3.271326   4.267136   2.779301   3.804050
    27  H    4.370453   3.780711   4.623255   2.728122   3.080004
    28  O    4.613426   4.620262   5.741308   3.684830   4.482057
    29  C    5.638355   5.696114   6.752923   4.837847   5.548683
    30  H    6.413004   6.573138   7.680487   5.690108   6.406677
    31  H    6.196864   6.012913   6.960569   5.050893   5.500813
    32  H    5.457844   5.696351   6.721416   5.070249   5.932081
                    6          7          8          9         10
     6  C    0.000000
     7  O    1.225664   0.000000
     8  N    1.379413   2.278152   0.000000
     9  C    2.531938   3.638534   1.456202   0.000000
    10  C    2.430880   2.721067   1.460207   2.453116   0.000000
    11  H    5.446586   5.255668   6.715456   7.450172   7.734942
    12  H    5.158766   5.252178   6.213266   6.751728   7.328556
    13  H    4.674965   4.365935   5.840817   6.727647   6.692030
    14  H    2.135018   2.662167   3.223546   3.733481   4.429681
    15  H    2.222800   3.303252   2.677175   2.594330   4.128334
    16  H    2.735942   3.948277   2.118821   1.088089   3.385842
    17  H    3.341160   4.338980   2.086226   1.094920   2.600358
    18  H    3.102527   4.146411   2.127818   1.099350   2.853604
    19  H    3.222193   3.563970   2.102516   2.714302   1.095635
    20  H    2.465748   2.230130   2.078729   3.370038   1.087870
    21  H    3.085408   3.380451   2.118133   2.739589   1.098184
    22  C    3.056193   3.520634   3.733780   4.207474   4.852948
    23  H    3.763227   3.918100   4.529178   5.171300   5.470705
    24  H    2.614602   3.140361   2.982202   3.522468   3.965613
    25  C    4.173716   4.882526   4.590681   4.595710   5.829042
    26  H    4.887255   5.509139   5.484361   5.511036   6.767371
    27  H    4.033742   4.960936   4.266866   3.965435   5.604019
    28  O    5.022875   5.676522   5.195211   5.151525   6.241649
    29  C    6.226795   6.985086   6.289576   5.982537   7.375392
    30  H    6.911539   7.615323   6.864073   6.574776   7.807504
    31  H    6.221428   7.128386   6.135835   5.583566   7.272165
    32  H    6.796579   7.506155   7.030170   6.769418   8.192026
                   11         12         13         14         15
    11  H    0.000000
    12  H    1.779530   0.000000
    13  H    1.775756   1.769772   0.000000
    14  H    4.431412   4.470754   4.401218   0.000000
    15  H    5.224095   4.629757   4.943768   1.768060   0.000000
    16  H    6.932042   6.104297   6.340620   3.433835   1.908984
    17  H    8.210090   7.360995   7.331379   4.761722   3.518483
    18  H    8.075075   7.521608   7.508617   3.981679   3.058014
    19  H    8.330621   7.734075   7.147779   5.273352   4.696245
    20  H    7.379817   7.138524   6.259189   4.483723   4.534003
    21  H    8.486457   8.186578   7.575000   4.815070   4.608302
    22  C    3.972926   2.799692   2.987804   3.382316   2.790895
    23  H    3.587953   2.368544   2.279186   4.122668   3.822774
    24  H    4.912978   3.848797   3.741368   3.617218   2.848124
    25  C    4.633194   3.111114   4.000004   4.175780   3.109971
    26  H    4.098433   2.494386   3.809021   4.455451   3.643022
    27  H    5.279025   3.923331   4.830217   3.926736   2.523441
    28  O    5.624358   3.962462   4.717203   5.436860   4.264804
    29  C    6.558666   4.823571   5.873728   6.453625   5.126675
    30  H    7.355154   5.598592   6.508825   7.364353   6.025795
    31  H    7.102925   5.444192   6.536816   6.390333   4.881292
    32  H    6.262009   4.512040   5.803486   6.724197   5.545360
                   16         17         18         19         20
    16  H    0.000000
    17  H    1.760070   0.000000
    18  H    1.776187   1.772618   0.000000
    19  H    3.627128   2.400276   3.260711   0.000000
    20  H    4.178019   3.608872   3.801900   1.787869   0.000000
    21  H    3.780767   2.922939   2.703947   1.778818   1.782375
    22  C    3.667902   4.661102   5.135630   5.098032   4.876937
    23  H    4.716336   5.559598   6.122884   5.672456   5.314922
    24  H    3.182917   3.823699   4.540459   4.084442   4.048582
    25  C    3.777096   4.939016   5.492870   5.947970   6.067306
    26  H    4.634597   5.947469   6.326957   6.969422   6.942351
    27  H    3.008648   4.346559   4.762772   5.747081   6.015950
    28  O    4.434307   5.204508   6.148181   6.115823   6.499422
    29  C    5.154048   5.951321   6.903425   7.185398   7.746357
    30  H    5.846797   6.383164   7.537681   7.477962   8.168946
    31  H    4.691414   5.525455   6.410315   7.081432   7.782894
    32  H    5.872372   6.856591   7.646749   8.094655   8.505256
                   21         22         23         24         25
    21  H    0.000000
    22  C    5.777493   0.000000
    23  H    6.458141   1.090812   0.000000
    24  H    4.949188   1.094522   1.748824   0.000000
    25  C    6.689251   1.531414   2.152036   2.149192   0.000000
    26  H    7.600373   2.175141   2.500598   3.068351   1.103084
    27  H    6.342567   2.177524   3.071599   2.530800   1.103862
    28  O    7.177384   2.373797   2.616877   2.571957   1.411985
    29  C    8.247389   3.674344   3.941090   3.917690   2.356661
    30  H    8.713432   4.399342   4.522858   4.481936   3.276023
    31  H    8.044079   4.058161   4.570261   4.206634   2.659637
    32  H    9.060628   4.045621   4.190076   4.538199   2.660090
                   26         27         28         29         30
    26  H    0.000000
    27  H    1.771950   0.000000
    28  O    2.081162   2.079440   0.000000
    29  C    2.630838   2.645159   1.412884   0.000000
    30  H    3.617126   3.625171   2.026312   1.092283   0.000000
    31  H    3.023591   2.469393   2.089121   1.101366   1.784321
    32  H    2.454604   3.049841   2.088904   1.101071   1.784274
                   31         32
    31  H    0.000000
    32  H    1.783858   0.000000
 Stoichiometry    C9H18N2O3
 Framework group  C1[X(C9H18N2O3)]
 Deg. of freedom    90
 Full point group                 C1      NOp   1
 Largest Abelian subgroup         C1      NOp   1
 Largest concise Abelian subgroup C1      NOp   1
                         Standard orientation:                         
 ---------------------------------------------------------------------
 Center     Atomic      Atomic             Coordinates (Angstroms)
 Number     Number       Type             X           Y           Z
 ---------------------------------------------------------------------
      1          6           0       -2.100854    2.606208   -0.660055
      2          6           0       -0.899002    2.269143    0.211176
      3          8           0       -0.364434    3.127390    0.902454
      4          7           0       -0.444087    0.963120    0.188146
      5          6           0        0.781573    0.657627    0.917229
      6          6           0        1.918371    0.313900   -0.061838
      7          8           0        2.212075    1.131475   -0.926454
      8          7           0        2.533191   -0.918601    0.013786
      9          6           0        2.365447   -1.905937    1.070930
     10          6           0        3.662905   -1.170006   -0.876578
     11          1           0       -2.383455    3.633666   -0.434329
     12          1           0       -2.956552    1.949498   -0.477552
     13          1           0       -1.844148    2.536762   -1.722451
     14          1           0        1.066892    1.575407    1.435455
     15          1           0        0.590299   -0.111087    1.669188
     16          1           0        1.383288   -1.842374    1.534894
     17          1           0        2.460650   -2.907587    0.639093
     18          1           0        3.130124   -1.804165    1.854181
     19          1           0        3.544824   -2.145099   -1.362032
     20          1           0        3.691448   -0.383091   -1.627185
     21          1           0        4.609353   -1.173353   -0.319593
     22          6           0       -1.063684   -0.110860   -0.578797
     23          1           0       -1.577927    0.289193   -1.453659
     24          1           0       -0.282241   -0.776189   -0.959143
     25          6           0       -2.051340   -0.936563    0.250648
     26          1           0       -2.885345   -0.301686    0.594393
     27          1           0       -1.557355   -1.332163    1.155077
     28          8           0       -2.517340   -1.987482   -0.569179
     29          6           0       -3.463245   -2.815351    0.075908
     30          1           0       -3.756416   -3.589371   -0.636851
     31          1           0       -3.040987   -3.297625    0.971517
     32          1           0       -4.359614   -2.252401    0.379169
 ---------------------------------------------------------------------
 Rotational constants (GHZ):      0.6649144      0.4733729      0.3110033
 Standard basis: 6-31G(d,p) (6D, 7F)
 There are   300 symmetry adapted basis functions of A   symmetry.
 Integral buffers will be    131072 words long.
 Raffenetti 2 integral format.
 Two-electron integral symmetry is turned on.
   300 basis functions,   518 primitive gaussians,   300 cartesian basis functions
    55 alpha electrons       55 beta electrons
       nuclear repulsion energy       965.5546949601 Hartrees.
 NAtoms=   32 NActive=   32 NUniq=   32 SFac= 1.00D+00 NAtFMM=   60 NAOKFM=F Big=F
 One-electron integrals computed using PRISM.
 NBasis=   300 RedAO= T  NBF=   300
 NBsUse=   300 1.00D-06 NBFU=   300
 Initial guess read from the read-write file.
 B after Tr=     0.000000    0.000000    0.000000
         Rot=    1.000000    0.000000    0.000000    0.000000 Ang=   0.00 deg.
 Initial guess orbital symmetries:
       Occupied  (A) (A) (A) (A) (A) (A) (A) (A) (A) (A) (A) (A)
                 (A) (A) (A) (A) (A) (A) (A) (A) (A) (A) (A) (A)
                 (A) (A) (A) (A) (A) (A) (A) (A) (A) (A) (A) (A)
                 (A) (A) (A) (A) (A) (A) (A) (A) (A) (A) (A) (A)
                 (A) (A) (A) (A) (A) (A) (A)
       Virtual   (A) (A) (A) (A) (A) (A) (A) (A) (A) (A) (A) (A)
                 (A) (A) (A) (A) (A) (A) (A) (A) (A) (A) (A) (A)
                 (A) (A) (A) (A) (A) (A) (A) (A) (A) (A) (A) (A)
                 (A) (A) (A) (A) (A) (A) (A) (A) (A) (A) (A) (A)
                 (A) (A) (A) (A) (A) (A) (A) (A) (A) (A) (A) (A)
                 (A) (A) (A) (A) (A) (A) (A) (A) (A) (A) (A) (A)
                 (A) (A) (A) (A) (A) (A) (A) (A) (A) (A) (A) (A)
                 (A) (A) (A) (A) (A) (A) (A) (A) (A) (A) (A) (A)
                 (A) (A) (A) (A) (A) (A) (A) (A) (A) (A) (A) (A)
                 (A) (A) (A) (A) (A) (A) (A) (A) (A) (A) (A) (A)
                 (A) (A) (A) (A) (A) (A) (A) (A) (A) (A) (A) (A)
                 (A) (A) (A) (A) (A) (A) (A) (A) (A) (A) (A) (A)
                 (A) (A) (A) (A) (A) (A) (A) (A) (A) (A) (A) (A)
                 (A) (A) (A) (A) (A) (A) (A) (A) (A) (A) (A) (A)
                 (A) (A) (A) (A) (A) (A) (A) (A) (A) (A) (A) (A)
                 (A) (A) (A) (A) (A) (A) (A) (A) (A) (A) (A) (A)
                 (A) (A) (A) (A) (A) (A) (A) (A) (A) (A) (A) (A)
                 (A) (A) (A) (A) (A) (A) (A) (A) (A) (A) (A) (A)
                 (A) (A) (A) (A) (A) (A) (A) (A) (A) (A) (A) (A)
                 (A) (A) (A) (A) (A) (A) (A) (A) (A) (A) (A) (A)
                 (A) (A) (A) (A) (A)
 Requested convergence on RMS density matrix=1.00D-08 within 128 cycles.
 Requested convergence on MAX density matrix=1.00D-06.
 Requested convergence on             energy=1.00D-06.
 No special actions if energy rises.
 Keep R1 ints in memory in canonical form, NReq=1033484046.
