 Entering Gaussian System, Link 0=/data/opt/apps/g09-C01/g09
 Initial command:
 /data/opt/apps/g09-C01/l1.exe /tmp/g09-tuu61186-1307529c21e64fea8x/Gau-1307662.inp -scrdir=/tmp/g09-tuu61186-1307529c21e64fea8x/
 Entering Link 1 = /data/opt/apps/g09-C01/l1.exe PID=   1307671.
  
 Copyright (c) 1988,1990,1992,1993,1995,1998,2003,2009,2011,
            Gaussian, Inc.  All Rights Reserved.
  
 This is part of the Gaussian(R) 09 program.  It is based on
 the Gaussian(R) 03 system (copyright 2003, Gaussian, Inc.),
 the Gaussian(R) 98 system (copyright 1998, Gaussian, Inc.),
 the Gaussian(R) 94 system (copyright 1995, Gaussian, Inc.),
 the Gaussian 92(TM) system (copyright 1992, Gaussian, Inc.),
 the Gaussian 90(TM) system (copyright 1990, Gaussian, Inc.),
 the Gaussian 88(TM) system (copyright 1988, Gaussian, Inc.),
 the Gaussian 86(TM) system (copyright 1986, Carnegie Mellon
 University), and the Gaussian 82(TM) system (copyright 1983,
 Carnegie Mellon University). Gaussian is a federally registered
 trademark of Gaussian, Inc.
  
 This software contains proprietary and confidential information,
 including trade secrets, belonging to Gaussian, Inc.
  
 This software is provided under written license and may be
 used, copied, transmitted, or stored only in accord with that
 written license.
  
 The following legend is applicable only to US Government
 contracts under FAR:
  
                    RESTRICTED RIGHTS LEGEND
  
 Use, reproduction and disclosure by the US Government is
 subject to restrictions as set forth in subparagraphs (a)
 and (c) of the Commercial Computer Software - Restricted
 Rights clause in FAR 52.227-19.
  
 Gaussian, Inc.
 340 Quinnipiac St., Bldg. 40, Wallingford CT 06492
  
  
 ---------------------------------------------------------------
 Warning -- This program may not be used in any manner that
 competes with the business of Gaussian, Inc. or will provide
 assistance to any competitor of Gaussian, Inc.  The licensee
 of this program is prohibited from giving any competitor of
 Gaussian, Inc. access to this program.  By using this program,
 the user acknowledges that Gaussian, Inc. is engaged in the
 business of creating and licensing software in the field of
 computational chemistry and represents and warrants to the
 licensee that it is not a competitor of Gaussian, Inc. and that
 it will not use this program in any manner prohibited above.
 ---------------------------------------------------------------
  

 Cite this work as:
 Gaussian 09, Revision C.01,
 M. J. Frisch, G. W. Trucks, H. B. Schlegel, G. E. Scuseria, 
 M. A. Robb, J. R. Cheeseman, G. Scalmani, V. Barone, B. Mennucci, 
 G. A. Petersson, H. Nakatsuji, M. Caricato, X. Li, H. P. Hratchian, 
 A. F. Izmaylov, J. Bloino, G. Zheng, J. L. Sonnenberg, M. Hada, 
 M. Ehara, K. Toyota, R. Fukuda, J. Hasegawa, M. Ishida, T. Nakajima, 
 Y. Honda, O. Kitao, H. Nakai, T. Vreven, J. A. Montgomery, Jr., 
 J. E. Peralta, F. Ogliaro, M. Bearpark, J. J. Heyd, E. Brothers, 
 K. N. Kudin, V. N. Staroverov, T. Keith, R. Kobayashi, J. Normand, 
 K. Raghavachari, A. Rendell, J. C. Burant, S. S. Iyengar, J. Tomasi, 
 M. Cossi, N. Rega, J. M. Millam, M. Klene, J. E. Knox, J. B. Cross, 
 V. Bakken, C. Adamo, J. Jaramillo, R. Gomperts, R. E. Stratmann, 
 O. Yazyev, A. J. Austin, R. Cammi, C. Pomelli, J. W. Ochterski, 
 R. L. Martin, K. Morokuma, V. G. Zakrzewski, G. A. Voth, 
 P. Salvador, J. J. Dannenberg, S. Dapprich, A. D. Daniels, 
 O. Farkas, J. B. Foresman, J. V. Ortiz, J. Cioslowski, 
 and D. J. Fox, Gaussian, Inc., Wallingford CT, 2010.
 
 ******************************************
 Gaussian 09:  EM64L-G09RevC.01 23-Sep-2011
                24-Apr-2026 
 ******************************************
 %nprocshared=8
 Will use up to    8 processors via shared memory.
 %mem=14GB
 -----------------------------------
 # opt=modredundant b3lyp/6-31g(d,p)
 -----------------------------------
 1/14=-1,18=120,19=15,26=3,38=1/1,3;
 2/9=110,12=2,17=6,18=5,40=1/2;
 3/5=1,6=6,7=101,11=2,16=1,25=1,30=1,71=1,74=-5/1,2,3;
 4//1;
 5/5=2,38=5/2;
 6/7=2,8=2,9=2,10=2,28=1/1;
 7//1,2,3,16;
 1/14=-1,18=20,19=15/3(2);
 2/9=110/2;
 99//99;
 2/9=110/2;
 3/5=1,6=6,7=101,11=2,16=1,25=1,30=1,71=1,74=-5/1,2,3;
 4/5=5,16=3/1;
 5/5=2,38=5/2;
 7//1,2,3,16;
 1/14=-1,18=20,19=15/3(-5);
 2/9=110/2;
 6/7=2,8=2,9=2,10=2,19=2,28=1/1;
 99/9=1/99;
 ---------------
 QM dihedral opt
 ---------------
 Charge =  0 Multiplicity = 1
 Symbolic Z-Matrix:
 C                     0.73017   2.80632  -0.22039 
 C                    -0.10803   1.53783  -0.28072 
 O                    -1.24686   1.56618  -0.74064 
 N                     0.44968   0.36415   0.16918 
 C                    -0.39825  -0.82762   0.30436 
 C                    -1.86311  -0.51131   0.66246 
 O                    -2.09549  -0.04965   1.774 
 N                    -2.85778  -0.93152  -0.18902 
 C                    -2.69798  -1.00966  -1.6358 
 C                    -4.22463  -0.65936   0.24683 
 H                     0.13803   3.60016  -0.67391 
 H                     1.67482   2.70953  -0.76417 
 H                     0.96179   3.0839    0.81303 
 H                    -0.30799  -1.46602  -0.57983 
 H                    -0.02377  -1.39858   1.1583 
 H                    -1.7095   -1.37396  -1.91137 
 H                    -3.43757  -1.7093   -2.03757 
 H                    -2.83662  -0.02698  -2.1027 
 H                    -4.89982  -1.38387  -0.2181 
 H                    -4.27637  -0.74303   1.33082 
 H                    -4.54138   0.35375  -0.03661 
 C                     1.80584   0.25624   0.69945 
 H                     2.22012   1.2464    0.8854 
 H                     1.78207  -0.26345   1.66393 
 C                     2.74624  -0.49336  -0.24748 
 H                     2.79433   0.0288   -1.21857 
 H                     2.36804  -1.51094  -0.44454 
 O                     4.01349  -0.53957   0.37247 
 C                     4.98105  -1.22642  -0.3951 
 H                     5.9156   -1.20739   0.16987 
 H                     4.69278  -2.27434  -0.57174 
 H                     5.14508  -0.74476  -1.37156 
 
 The following ModRedundant input section has been read:
 D       2       4       5       6 F                                           
 D       4       5       6       8 S  36 10.000                                

 GradGradGradGradGradGradGradGradGradGradGradGradGradGradGradGradGradGrad
 Berny optimization.
 Initialization pass.
                           ----------------------------
                           !    Initial Parameters    !
                           ! (Angstroms and Degrees)  !
 --------------------------                            --------------------------
 ! Name  Definition              Value          Derivative Info.                !
 --------------------------------------------------------------------------------
 ! R1    R(1,2)                  1.5216         estimate D2E/DX2                !
 ! R2    R(1,11)                 1.0893         estimate D2E/DX2                !
 ! R3    R(1,12)                 1.0943         estimate D2E/DX2                !
 ! R4    R(1,13)                 1.0948         estimate D2E/DX2                !
 ! R5    R(2,3)                  1.2285         estimate D2E/DX2                !
 ! R6    R(2,4)                  1.3751         estimate D2E/DX2                !
 ! R7    R(4,5)                  1.4689         estimate D2E/DX2                !
 ! R8    R(4,22)                 1.4601         estimate D2E/DX2                !
 ! R9    R(5,6)                  1.5408         estimate D2E/DX2                !
 ! R10   R(5,14)                 1.0943         estimate D2E/DX2                !
 ! R11   R(5,15)                 1.0934         estimate D2E/DX2                !
 ! R12   R(6,7)                  1.2258         estimate D2E/DX2                !
 ! R13   R(6,8)                  1.3751         estimate D2E/DX2                !
 ! R14   R(8,9)                  1.4577         estimate D2E/DX2                !
 ! R15   R(8,10)                 1.4602         estimate D2E/DX2                !
 ! R16   R(9,16)                 1.0889         estimate D2E/DX2                !
 ! R17   R(9,17)                 1.0945         estimate D2E/DX2                !
 ! R18   R(9,18)                 1.0968         estimate D2E/DX2                !
 ! R19   R(10,19)                1.0941         estimate D2E/DX2                !
 ! R20   R(10,20)                1.0884         estimate D2E/DX2                !
 ! R21   R(10,21)                1.0987         estimate D2E/DX2                !
 ! R22   R(22,23)                1.0893         estimate D2E/DX2                !
 ! R23   R(22,24)                1.0958         estimate D2E/DX2                !
 ! R24   R(22,25)                1.5307         estimate D2E/DX2                !
 ! R25   R(25,26)                1.1036         estimate D2E/DX2                !
 ! R26   R(25,27)                1.1033         estimate D2E/DX2                !
 ! R27   R(25,28)                1.4115         estimate D2E/DX2                !
 ! R28   R(28,29)                1.4132         estimate D2E/DX2                !
 ! R29   R(29,30)                1.0922         estimate D2E/DX2                !
 ! R30   R(29,31)                1.1011         estimate D2E/DX2                !
 ! R31   R(29,32)                1.1011         estimate D2E/DX2                !
 ! A1    A(2,1,11)             106.9528         estimate D2E/DX2                !
 ! A2    A(2,1,12)             112.4641         estimate D2E/DX2                !
 ! A3    A(2,1,13)             111.4281         estimate D2E/DX2                !
 ! A4    A(11,1,12)            109.0772         estimate D2E/DX2                !
 ! A5    A(11,1,13)            108.8585         estimate D2E/DX2                !
 ! A6    A(12,1,13)            107.9902         estimate D2E/DX2                !
 ! A7    A(1,2,3)              120.4151         estimate D2E/DX2                !
 ! A8    A(1,2,4)              118.3686         estimate D2E/DX2                !
 ! A9    A(3,2,4)              121.2068         estimate D2E/DX2                !
 ! A10   A(2,4,5)              119.2413         estimate D2E/DX2                !
 ! A11   A(2,4,22)             123.9579         estimate D2E/DX2                !
 ! A12   A(5,4,22)             116.2806         estimate D2E/DX2                !
 ! A13   A(4,5,6)              113.8058         estimate D2E/DX2                !
 ! A14   A(4,5,14)             110.5709         estimate D2E/DX2                !
 ! A15   A(4,5,15)             107.3293         estimate D2E/DX2                !
 ! A16   A(6,5,14)             112.7033         estimate D2E/DX2                !
 ! A17   A(6,5,15)             104.5542         estimate D2E/DX2                !
 ! A18   A(14,5,15)            107.3472         estimate D2E/DX2                !
 ! A19   A(5,6,7)              117.9227         estimate D2E/DX2                !
 ! A20   A(5,6,8)              118.7534         estimate D2E/DX2                !
 ! A21   A(7,6,8)              122.6449         estimate D2E/DX2                !
 ! A22   A(6,8,9)              123.4804         estimate D2E/DX2                !
 ! A23   A(6,8,10)             115.8043         estimate D2E/DX2                !
 ! A24   A(9,8,10)             114.133          estimate D2E/DX2                !
 ! A25   A(8,9,16)             111.631          estimate D2E/DX2                !
 ! A26   A(8,9,17)             108.9367         estimate D2E/DX2                !
 ! A27   A(8,9,18)             111.1395         estimate D2E/DX2                !
 ! A28   A(16,9,17)            107.8576         estimate D2E/DX2                !
 ! A29   A(16,9,18)            107.8647         estimate D2E/DX2                !
 ! A30   A(17,9,18)            109.3333         estimate D2E/DX2                !
 ! A31   A(8,10,19)            109.1113         estimate D2E/DX2                !
 ! A32   A(8,10,20)            109.1123         estimate D2E/DX2                !
 ! A33   A(8,10,21)            111.3911         estimate D2E/DX2                !
 ! A34   A(19,10,20)           110.0587         estimate D2E/DX2                !
 ! A35   A(19,10,21)           108.8499         estimate D2E/DX2                !
 ! A36   A(20,10,21)           108.3076         estimate D2E/DX2                !
 ! A37   A(4,22,23)            110.3672         estimate D2E/DX2                !
 ! A38   A(4,22,24)            109.5441         estimate D2E/DX2                !
 ! A39   A(4,22,25)            112.467          estimate D2E/DX2                !
 ! A40   A(23,22,24)           106.8027         estimate D2E/DX2                !
 ! A41   A(23,22,25)           108.487          estimate D2E/DX2                !
 ! A42   A(24,22,25)           109.0004         estimate D2E/DX2                !
 ! A43   A(22,25,26)           109.8415         estimate D2E/DX2                !
 ! A44   A(22,25,27)           110.5824         estimate D2E/DX2                !
 ! A45   A(22,25,28)           107.2117         estimate D2E/DX2                !
 ! A46   A(26,25,27)           107.106          estimate D2E/DX2                !
 ! A47   A(26,25,28)           111.2743         estimate D2E/DX2                !
 ! A48   A(27,25,28)           110.8544         estimate D2E/DX2                !
 ! A49   A(25,28,29)           113.0819         estimate D2E/DX2                !
 ! A50   A(28,29,30)           107.242          estimate D2E/DX2                !
 ! A51   A(28,29,31)           111.7429         estimate D2E/DX2                !
 ! A52   A(28,29,32)           111.7808         estimate D2E/DX2                !
 ! A53   A(30,29,31)           108.879          estimate D2E/DX2                !
 ! A54   A(30,29,32)           108.8826         estimate D2E/DX2                !
 ! A55   A(31,29,32)           108.2434         estimate D2E/DX2                !
 ! D1    D(11,1,2,3)            -2.3197         estimate D2E/DX2                !
 ! D2    D(11,1,2,4)           176.5781         estimate D2E/DX2                !
 ! D3    D(12,1,2,3)          -122.0415         estimate D2E/DX2                !
 ! D4    D(12,1,2,4)            56.8563         estimate D2E/DX2                !
 ! D5    D(13,1,2,3)           116.5385         estimate D2E/DX2                !
 ! D6    D(13,1,2,4)           -64.5637         estimate D2E/DX2                !
 ! D7    D(1,2,4,5)            171.145          estimate D2E/DX2                !
 ! D8    D(1,2,4,22)            -0.2633         estimate D2E/DX2                !
 ! D9    D(3,2,4,5)             -9.9663         estimate D2E/DX2                !
 ! D10   D(3,2,4,22)           178.6253         estimate D2E/DX2                !
 ! D11   D(2,4,5,6)            -31.3302         Frozen                          !
 ! D12   D(2,4,5,14)            96.7054         estimate D2E/DX2                !
 ! D13   D(2,4,5,15)          -146.5051         estimate D2E/DX2                !
 ! D14   D(22,4,5,6)           140.7263         estimate D2E/DX2                !
 ! D15   D(22,4,5,14)          -91.2381         estimate D2E/DX2                !
 ! D16   D(22,4,5,15)           25.5514         estimate D2E/DX2                !
 ! D17   D(2,4,22,23)           12.164          estimate D2E/DX2                !
 ! D18   D(2,4,22,24)          129.4863         estimate D2E/DX2                !
 ! D19   D(2,4,22,25)         -109.1375         estimate D2E/DX2                !
 ! D20   D(5,4,22,23)         -159.4766         estimate D2E/DX2                !
 ! D21   D(5,4,22,24)          -42.1544         estimate D2E/DX2                !
 ! D22   D(5,4,22,25)           79.2219         estimate D2E/DX2                !
 ! D23   D(4,5,6,7)            -68.0865         estimate D2E/DX2                !
 ! D24   D(4,5,6,8)            121.1018         Scan                            !
 ! D25   D(14,5,6,7)           164.981          estimate D2E/DX2                !
 ! D26   D(14,5,6,8)            -5.8307         estimate D2E/DX2                !
 ! D27   D(15,5,6,7)            48.7148         estimate D2E/DX2                !
 ! D28   D(15,5,6,8)          -122.0969         estimate D2E/DX2                !
 ! D29   D(5,6,8,9)            -33.2856         estimate D2E/DX2                !
 ! D30   D(5,6,8,10)           176.9143         estimate D2E/DX2                !
 ! D31   D(7,6,8,9)            156.3603         estimate D2E/DX2                !
 ! D32   D(7,6,8,10)             6.5602         estimate D2E/DX2                !
 ! D33   D(6,8,9,16)            39.1773         estimate D2E/DX2                !
 ! D34   D(6,8,9,17)           158.1775         estimate D2E/DX2                !
 ! D35   D(6,8,9,18)           -81.2971         estimate D2E/DX2                !
 ! D36   D(10,8,9,16)         -170.5737         estimate D2E/DX2                !
 ! D37   D(10,8,9,17)          -51.5735         estimate D2E/DX2                !
 ! D38   D(10,8,9,18)           68.9519         estimate D2E/DX2                !
 ! D39   D(6,8,10,19)         -154.7489         estimate D2E/DX2                !
 ! D40   D(6,8,10,20)          -34.4684         estimate D2E/DX2                !
 ! D41   D(6,8,10,21)           85.0548         estimate D2E/DX2                !
 ! D42   D(9,8,10,19)           52.6211         estimate D2E/DX2                !
 ! D43   D(9,8,10,20)          172.9017         estimate D2E/DX2                !
 ! D44   D(9,8,10,21)          -67.5751         estimate D2E/DX2                !
 ! D45   D(4,22,25,26)          59.3017         estimate D2E/DX2                !
 ! D46   D(4,22,25,27)         -58.7022         estimate D2E/DX2                !
 ! D47   D(4,22,25,28)        -179.661          estimate D2E/DX2                !
 ! D48   D(23,22,25,26)        -63.0679         estimate D2E/DX2                !
 ! D49   D(23,22,25,27)        178.9282         estimate D2E/DX2                !
 ! D50   D(23,22,25,28)         57.9694         estimate D2E/DX2                !
 ! D51   D(24,22,25,26)       -179.0122         estimate D2E/DX2                !
 ! D52   D(24,22,25,27)         62.984          estimate D2E/DX2                !
 ! D53   D(24,22,25,28)        -57.9749         estimate D2E/DX2                !
 ! D54   D(22,25,28,29)        179.2116         estimate D2E/DX2                !
 ! D55   D(26,25,28,29)        -60.6603         estimate D2E/DX2                !
 ! D56   D(27,25,28,29)         58.4248         estimate D2E/DX2                !
 ! D57   D(25,28,29,30)       -179.8361         estimate D2E/DX2                !
 ! D58   D(25,28,29,31)        -60.5928         estimate D2E/DX2                !
 ! D59   D(25,28,29,32)         60.8941         estimate D2E/DX2                !
 --------------------------------------------------------------------------------
 Trust Radius=3.00D-01 FncErr=1.00D-07 GrdErr=1.00D-06
 Number of optimizations in scan=  37
 Number of steps in this run=    155 maximum allowed number of steps=    192.
 GradGradGradGradGradGradGradGradGradGradGradGradGradGradGradGradGradGrad

                          Input orientation:                          
 ---------------------------------------------------------------------
 Center     Atomic      Atomic             Coordinates (Angstroms)
 Number     Number       Type             X           Y           Z
 ---------------------------------------------------------------------
      1          6           0        0.730168    2.806318   -0.220389
      2          6           0       -0.108029    1.537834   -0.280724
      3          8           0       -1.246855    1.566175   -0.740641
      4          7           0        0.449676    0.364153    0.169177
      5          6           0       -0.398245   -0.827617    0.304356
      6          6           0       -1.863106   -0.511312    0.662455
      7          8           0       -2.095489   -0.049646    1.774000
      8          7           0       -2.857782   -0.931522   -0.189021
      9          6           0       -2.697978   -1.009656   -1.635798
     10          6           0       -4.224630   -0.659358    0.246831
     11          1           0        0.138029    3.600156   -0.673914
     12          1           0        1.674819    2.709531   -0.764170
     13          1           0        0.961787    3.083904    0.813031
     14          1           0       -0.307989   -1.466018   -0.579827
     15          1           0       -0.023774   -1.398580    1.158298
     16          1           0       -1.709498   -1.373958   -1.911369
     17          1           0       -3.437567   -1.709298   -2.037567
     18          1           0       -2.836616   -0.026975   -2.102695
     19          1           0       -4.899823   -1.383867   -0.218104
     20          1           0       -4.276365   -0.743032    1.330820
     21          1           0       -4.541383    0.353751   -0.036612
     22          6           0        1.805843    0.256235    0.699450
     23          1           0        2.220120    1.246396    0.885396
     24          1           0        1.782069   -0.263448    1.663933
     25          6           0        2.746243   -0.493358   -0.247481
     26          1           0        2.794329    0.028797   -1.218567
     27          1           0        2.368042   -1.510940   -0.444539
     28          8           0        4.013493   -0.539570    0.372465
     29          6           0        4.981050   -1.226423   -0.395098
     30          1           0        5.915596   -1.207390    0.169869
     31          1           0        4.692784   -2.274340   -0.571736
     32          1           0        5.145084   -0.744761   -1.371557
 ---------------------------------------------------------------------
                    Distance matrix (angstroms):
                    1          2          3          4          5
     1  C    0.000000
     2  C    1.521600   0.000000
     3  O    2.391074   1.228516   0.000000
     4  N    2.488897   1.375126   2.269547   0.000000
     5  C    3.841114   2.453956   2.746343   1.468863   0.000000
     6  C    4.302459   2.858125   2.581549   2.521651   1.540812
     7  O    4.485360   3.269859   3.107165   3.037195   2.376074
     8  N    5.181295   3.696927   3.022889   3.570204   2.510685
     9  C    5.321393   3.877340   3.089008   3.879821   3.014317
    10  C    6.064588   4.695995   3.846458   4.785681   3.830515
    11  H    1.089262   2.113839   2.461592   3.358518   4.566155
    12  H    1.094272   2.187496   3.137514   2.805871   4.236834
    13  H    1.094833   2.175118   3.097660   2.841452   4.172342
    14  H    4.411329   3.025322   3.178290   2.117685   1.094295
    15  H    4.488917   3.271148   3.727153   2.075992   1.093364
    16  H    5.126996   3.701654   3.198285   3.465795   2.631978
    17  H    6.408037   4.971538   4.148489   4.927431   3.936933
    18  H    4.928750   3.635023   2.630714   4.014237   3.518604
    19  H    7.018152   5.612624   4.724401   5.641161   4.565806
    20  H    6.330048   5.017415   4.336049   4.991066   4.012555
    21  H    5.817053   4.595244   3.580439   4.995311   4.321745
    22  C    2.916523   2.503227   3.620604   1.460145   2.487738
    23  H    2.424061   2.620124   3.842678   2.103757   3.390424
    24  H    3.752416   3.255576   4.278303   2.098440   2.630685
    25  C    3.866931   3.503386   4.519924   2.486594   3.209993
    26  H    3.601631   3.403002   4.350070   2.745122   3.639405
    27  H    4.622942   3.931003   4.756448   2.751863   2.946204
    28  O    4.725110   4.661460   5.774463   3.682232   4.421656
    29  C    5.862041   5.792489   6.834091   4.835462   5.439218
    30  H    6.568928   6.635009   7.734494   5.687357   6.326682
    31  H    6.452818   6.137195   7.075125   5.051194   5.364617
    32  H    5.781594   5.830553   6.826080   5.064623   5.791722
                    6          7          8          9         10
     6  C    0.000000
     7  O    1.225834   0.000000
     8  N    1.375125   2.283035   0.000000
     9  C    2.495461   3.593235   1.457671   0.000000
    10  C    2.402386   2.690211   1.460244   2.449013   0.000000
    11  H    4.763884   4.929700   5.453999   5.497138   6.166362
    12  H    4.992595   5.317009   5.842306   5.806328   6.868408
    13  H    4.574743   4.482135   5.631773   6.012310   6.421177
    14  H    2.207514   3.277464   2.634361   2.652431   4.083398
    15  H    2.101487   2.547688   3.172540   3.887107   4.361698
    16  H    2.718883   3.935065   2.116787   1.088921   3.390335
    17  H    3.347270   4.368485   2.087632   1.094490   2.634448
    18  H    2.971255   3.946967   2.116790   1.096757   2.801208
    19  H    3.279998   3.689568   2.091744   2.645376   1.094058
    20  H    2.514801   2.330968   2.087540   3.370937   1.088444
    21  H    2.900034   3.069763   2.123598   2.795428   1.098664
    22  C    3.748558   4.058154   4.893827   5.228792   6.116353
    23  H    4.451064   4.592801   5.628747   5.969412   6.750886
    24  H    3.788363   3.885007   5.040633   5.613900   6.184283
    25  C    4.698341   5.265514   5.621432   5.642121   6.990348
    26  H    5.051897   5.733405   5.824821   5.605167   7.203245
    27  H    4.486347   5.194266   5.264053   5.228283   6.683301
    28  O    5.883818   6.286811   6.905310   7.021249   8.239952
    29  C    6.962203   7.494478   7.847084   7.781632   9.245441
    30  H    7.825303   8.251733   8.785048   8.803022  10.155316
    31  H    6.900086   7.518803   7.678586   7.573309   9.099368
    32  H    7.301125   7.924873   8.091918   7.851982   9.508839
                   11         12         13         14         15
    11  H    0.000000
    12  H    1.778506   0.000000
    13  H    1.776541   1.770913   0.000000
    14  H    5.086640   4.626091   4.924853   0.000000
    15  H    5.326401   4.843313   4.602521   1.762500   0.000000
    16  H    5.448528   5.426283   5.867764   1.935383   3.502160
    17  H    6.544825   6.876342   7.103169   3.460990   4.686585
    18  H    4.903673   5.443635   5.710244   3.283889   4.519674
    19  H    7.101282   7.764020   7.441955   4.606792   5.066612
    20  H    6.509156   7.192063   6.507825   4.463327   4.306279
    21  H    5.730811   6.687317   6.201654   4.639856   4.990718
    22  C    3.981148   2.859722   2.953141   3.011809   2.509273
    23  H    3.508096   2.271384   2.228245   3.986904   3.479286
    24  H    4.805812   3.840025   3.549882   3.293778   2.192090
    25  C    4.872523   3.416638   4.135913   3.222554   3.235527
    26  H    4.484103   2.940428   4.101131   3.502405   3.953302
    27  H    5.581118   4.288951   4.967054   2.679825   2.881405
    28  O    5.766408   4.161489   4.757791   4.521103   4.201780
    29  C    6.843132   5.153553   6.016059   5.297685   5.243180
    30  H    7.563382   5.847982   6.585521   6.273910   6.024090
    31  H    7.434106   5.829589   6.674481   5.065687   5.099597
    32  H    6.666004   4.933943   6.077094   5.557252   5.791782
                   16         17         18         19         20
    16  H    0.000000
    17  H    1.764823   0.000000
    18  H    1.766738   1.787623   0.000000
    19  H    3.611844   2.356808   3.106391   0.000000
    20  H    4.183140   3.603232   3.791390   1.788445   0.000000
    21  H    3.810415   3.078701   2.705528   1.783461   1.772861
    22  C    4.672422   6.232811   5.429977   6.964036   6.196000
    23  H    5.489084   7.020631   6.010053   7.670045   6.808858
    24  H    5.119283   6.560197   5.964533   7.031720   6.086509
    25  C    4.837107   6.551521   5.901495   7.697805   7.202110
    26  H    4.767825   6.521370   5.700205   7.886477   7.555780
    27  H    4.335515   6.023469   5.660397   7.272502   6.920240
    28  O    6.218097   7.918006   7.301586   8.972670   8.347550
    29  C    6.861798   8.590925   8.091382   9.883712   9.429326
    30  H    7.905780   9.623219   9.119163  10.823814  10.268374
    31  H    6.602615   8.280733   8.005395   9.640337   9.295712
    32  H    6.904533   8.662321   8.047193  10.131094   9.801354
                   21         22         23         24         25
    21  H    0.000000
    22  C    6.390507   0.000000
    23  H    6.882212   1.089321   0.000000
    24  H    6.577145   1.095839   1.754320   0.000000
    25  C    7.339724   1.530660   2.141719   2.153136   0.000000
    26  H    7.437425   2.169705   2.497784   3.069020   1.103615
    27  H    7.168238   2.178919   3.064883   2.518979   1.103332
    28  O    8.611113   2.369376   2.582433   2.592949   1.411521
    29  C    9.659306   3.671274   3.921382   3.924335   2.356594
    30  H   10.574886   4.394624   4.493282   4.495475   3.275488
    31  H    9.615771   4.044027   4.542343   4.184993   2.658206
    32  H    9.839535   4.054823   4.196899   4.555846   2.661050
                   26         27         28         29         30
    26  H    0.000000
    27  H    1.775283   0.000000
    28  O    2.083455   2.078116   0.000000
    29  C    2.652438   2.628917   1.413183   0.000000
    30  H    3.632936   3.613140   2.026086   1.092212   0.000000
    31  H    3.054007   2.450180   2.088631   1.101103   1.784273
    32  H    2.479485   3.026277   2.089070   1.101080   1.784295
                   31         32
    31  H    0.000000
    32  H    1.784349   0.000000
 Stoichiometry    C9H18N2O3
 Framework group  C1[X(C9H18N2O3)]
 Deg. of freedom    90
 Full point group                 C1      NOp   1
 Largest Abelian subgroup         C1      NOp   1
 Largest concise Abelian subgroup C1      NOp   1
                         Standard orientation:                         
 ---------------------------------------------------------------------
 Center     Atomic      Atomic             Coordinates (Angstroms)
 Number     Number       Type             X           Y           Z
 ---------------------------------------------------------------------
      1          6           0       -0.730168    2.806318    0.220389
      2          6           0        0.108029    1.537834    0.280724
      3          8           0        1.246855    1.566175    0.740641
      4          7           0       -0.449676    0.364153   -0.169177
      5          6           0        0.398245   -0.827617   -0.304356
      6          6           0        1.863106   -0.511312   -0.662455
      7          8           0        2.095489   -0.049646   -1.774000
      8          7           0        2.857782   -0.931522    0.189021
      9          6           0        2.697978   -1.009656    1.635798
     10          6           0        4.224630   -0.659358   -0.246831
     11          1           0       -0.138029    3.600156    0.673914
     12          1           0       -1.674819    2.709531    0.764170
     13          1           0       -0.961787    3.083904   -0.813031
     14          1           0        0.307989   -1.466018    0.579827
     15          1           0        0.023774   -1.398580   -1.158298
     16          1           0        1.709498   -1.373958    1.911369
     17          1           0        3.437567   -1.709298    2.037567
     18          1           0        2.836616   -0.026975    2.102695
     19          1           0        4.899823   -1.383867    0.218104
     20          1           0        4.276365   -0.743032   -1.330820
     21          1           0        4.541383    0.353751    0.036612
     22          6           0       -1.805843    0.256235   -0.699450
     23          1           0       -2.220120    1.246396   -0.885396
     24          1           0       -1.782069   -0.263448   -1.663933
     25          6           0       -2.746243   -0.493358    0.247481
     26          1           0       -2.794329    0.028797    1.218567
     27          1           0       -2.368042   -1.510940    0.444539
     28          8           0       -4.013493   -0.539570   -0.372465
     29          6           0       -4.981050   -1.226423    0.395098
     30          1           0       -5.915596   -1.207390   -0.169869
     31          1           0       -4.692784   -2.274340    0.571736
     32          1           0       -5.145084   -0.744761    1.371557
 ---------------------------------------------------------------------
 Rotational constants (GHZ):      1.2017627      0.3196634      0.2922493
 Standard basis: 6-31G(d,p) (6D, 7F)
 There are   300 symmetry adapted basis functions of A   symmetry.
 Integral buffers will be    131072 words long.
 Raffenetti 2 integral format.
 Two-electron integral symmetry is turned on.
   300 basis functions,   518 primitive gaussians,   300 cartesian basis functions
    55 alpha electrons       55 beta electrons
       nuclear repulsion energy       968.0478838075 Hartrees.
 NAtoms=   32 NActive=   32 NUniq=   32 SFac= 1.00D+00 NAtFMM=   60 NAOKFM=F Big=F
 One-electron integrals computed using PRISM.
 NBasis=   300 RedAO= T  NBF=   300
 NBsUse=   300 1.00D-06 NBFU=   300
 Harris functional with IExCor=  402 diagonalized for initial guess.
 ExpMin= 1.61D-01 ExpMax= 5.48D+03 ExpMxC= 8.25D+02 IAcc=1 IRadAn=         1 AccDes= 0.00D+00
 HarFok:  IExCor=  402 AccDes= 0.00D+00 IRadAn=         1 IDoV= 1
 ScaDFX=  1.000000  1.000000  1.000000  1.000000
 FoFCou: FMM=F IPFlag=           0 FMFlag=      100000 FMFlg1=           0
         NFxFlg=           0 DoJE=T BraDBF=F KetDBF=T FulRan=T
         Omega=  0.000000  0.000000  1.000000  0.000000  0.000000 ICntrl=     500 IOpCl=  0
         NMat0=    1 NMatS0=    1 NMatT0=    0 NMatD0=    1 NMtDS0=    0 NMtDT0=    0
         I1Cent=           4 NGrid=           0.
 Petite list used in FoFCou.
 Initial guess orbital symmetries:
       Occupied  (A) (A) (A) (A) (A) (A) (A) (A) (A) (A) (A) (A)
                 (A) (A) (A) (A) (A) (A) (A) (A) (A) (A) (A) (A)
                 (A) (A) (A) (A) (A) (A) (A) (A) (A) (A) (A) (A)
                 (A) (A) (A) (A) (A) (A) (A) (A) (A) (A) (A) (A)
                 (A) (A) (A) (A) (A) (A) (A)
       Virtual   (A) (A) (A) (A) (A) (A) (A) (A) (A) (A) (A) (A)
                 (A) (A) (A) (A) (A) (A) (A) (A) (A) (A) (A) (A)
                 (A) (A) (A) (A) (A) (A) (A) (A) (A) (A) (A) (A)
                 (A) (A) (A) (A) (A) (A) (A) (A) (A) (A) (A) (A)
                 (A) (A) (A) (A) (A) (A) (A) (A) (A) (A) (A) (A)
                 (A) (A) (A) (A) (A) (A) (A) (A) (A) (A) (A) (A)
                 (A) (A) (A) (A) (A) (A) (A) (A) (A) (A) (A) (A)
                 (A) (A) (A) (A) (A) (A) (A) (A) (A) (A) (A) (A)
                 (A) (A) (A) (A) (A) (A) (A) (A) (A) (A) (A) (A)
                 (A) (A) (A) (A) (A) (A) (A) (A) (A) (A) (A) (A)
                 (A) (A) (A) (A) (A) (A) (A) (A) (A) (A) (A) (A)
                 (A) (A) (A) (A) (A) (A) (A) (A) (A) (A) (A) (A)
                 (A) (A) (A) (A) (A) (A) (A) (A) (A) (A) (A) (A)
                 (A) (A) (A) (A) (A) (A) (A) (A) (A) (A) (A) (A)
                 (A) (A) (A) (A) (A) (A) (A) (A) (A) (A) (A) (A)
                 (A) (A) (A) (A) (A) (A) (A) (A) (A) (A) (A) (A)
                 (A) (A) (A) (A) (A) (A) (A) (A) (A) (A) (A) (A)
                 (A) (A) (A) (A) (A) (A) (A) (A) (A) (A) (A) (A)
                 (A) (A) (A) (A) (A) (A) (A) (A) (A) (A) (A) (A)
                 (A) (A) (A) (A) (A) (A) (A) (A) (A) (A) (A) (A)
                 (A) (A) (A) (A) (A)
 The electronic state of the initial guess is 1-A.
 Requested convergence on RMS density matrix=1.00D-08 within 128 cycles.
 Requested convergence on MAX density matrix=1.00D-06.
 Requested convergence on             energy=1.00D-06.
 No special actions if energy rises.
 Keep R1 ints in memory in canonical form, NReq=1033484971.
 Integral accuracy reduced to 1.0D-05 until final iterations.
 Initial convergence to 1.0D-05 achieved.  Increase integral accuracy.
 SCF Done:  E(RB3LYP) =  -688.989635968     A.U. after   14 cycles
             Convg  =    0.5852D-08             -V/T =  2.0093

 **********************************************************************

            Population analysis using the SCF density.

 **********************************************************************

 Orbital symmetries:
       Occupied  (A) (A) (A) (A) (A) (A) (A) (A) (A) (A) (A) (A)
                 (A) (A) (A) (A) (A) (A) (A) (A) (A) (A) (A) (A)
                 (A) (A) (A) (A) (A) (A) (A) (A) (A) (A) (A) (A)
                 (A) (A) (A) (A) (A) (A) (A) (A) (A) (A) (A) (A)
                 (A) (A) (A) (A) (A) (A) (A)
       Virtual   (A) (A) (A) (A) (A) (A) (A) (A) (A) (A) (A) (A)
                 (A) (A) (A) (A) (A) (A) (A) (A) (A) (A) (A) (A)
                 (A) (A) (A) (A) (A) (A) (A) (A) (A) (A) (A) (A)
                 (A) (A) (A) (A) (A) (A) (A) (A) (A) (A) (A) (A)
                 (A) (A) (A) (A) (A) (A) (A) (A) (A) (A) (A) (A)
                 (A) (A) (A) (A) (A) (A) (A) (A) (A) (A) (A) (A)
                 (A) (A) (A) (A) (A) (A) (A) (A) (A) (A) (A) (A)
                 (A) (A) (A) (A) (A) (A) (A) (A) (A) (A) (A) (A)
                 (A) (A) (A) (A) (A) (A) (A) (A) (A) (A) (A) (A)
                 (A) (A) (A) (A) (A) (A) (A) (A) (A) (A) (A) (A)
                 (A) (A) (A) (A) (A) (A) (A) (A) (A) (A) (A) (A)
                 (A) (A) (A) (A) (A) (A) (A) (A) (A) (A) (A) (A)
                 (A) (A) (A) (A) (A) (A) (A) (A) (A) (A) (A) (A)
                 (A) (A) (A) (A) (A) (A) (A) (A) (A) (A) (A) (A)
                 (A) (A) (A) (A) (A) (A) (A) (A) (A) (A) (A) (A)
                 (A) (A) (A) (A) (A) (A) (A) (A) (A) (A) (A) (A)
                 (A) (A) (A) (A) (A) (A) (A) (A) (A) (A) (A) (A)
                 (A) (A) (A) (A) (A) (A) (A) (A) (A) (A) (A) (A)
                 (A) (A) (A) (A) (A) (A) (A) (A) (A) (A) (A) (A)
                 (A) (A) (A) (A) (A) (A) (A) (A) (A) (A) (A) (A)
                 (A) (A) (A) (A) (A)
 The electronic state is 1-A.
 Alpha  occ. eigenvalues --  -19.16073 -19.11179 -19.09574 -14.36987 -14.35175
 Alpha  occ. eigenvalues --  -10.28804 -10.27542 -10.24449 -10.23745 -10.23058
 Alpha  occ. eigenvalues --  -10.22888 -10.21087 -10.19975 -10.19189  -1.04477
 Alpha  occ. eigenvalues --   -1.03515  -1.01547  -0.93557  -0.91789  -0.77410
 Alpha  occ. eigenvalues --   -0.75752  -0.71851  -0.70581  -0.68442  -0.66852
 Alpha  occ. eigenvalues --   -0.62850  -0.56664  -0.52557  -0.51164  -0.50111
 Alpha  occ. eigenvalues --   -0.49471  -0.48415  -0.46963  -0.45925  -0.45699
 Alpha  occ. eigenvalues --   -0.45432  -0.43943  -0.42953  -0.41733  -0.40008
 Alpha  occ. eigenvalues --   -0.39887  -0.39109  -0.39052  -0.38520  -0.37964
 Alpha  occ. eigenvalues --   -0.36830  -0.36286  -0.36137  -0.33722  -0.33091
 Alpha  occ. eigenvalues --   -0.26771  -0.25087  -0.24988  -0.23629  -0.22329
 Alpha virt. eigenvalues --    0.02156   0.03153   0.07458   0.08509   0.09587
 Alpha virt. eigenvalues --    0.11013   0.12166   0.12498   0.13885   0.14726
 Alpha virt. eigenvalues --    0.15058   0.15374   0.15682   0.15956   0.16877
 Alpha virt. eigenvalues --    0.17508   0.17619   0.18036   0.18507   0.19035
 Alpha virt. eigenvalues --    0.19737   0.20720   0.21236   0.22724   0.23638
 Alpha virt. eigenvalues --    0.25177   0.26129   0.27377   0.28324   0.32847
 Alpha virt. eigenvalues --    0.35166   0.38130   0.41935   0.48135   0.49157
 Alpha virt. eigenvalues --    0.49893   0.50622   0.51123   0.53171   0.54275
 Alpha virt. eigenvalues --    0.54585   0.55442   0.55564   0.56654   0.57338
 Alpha virt. eigenvalues --    0.59979   0.61245   0.61857   0.62528   0.65253
 Alpha virt. eigenvalues --    0.65897   0.67209   0.67843   0.70098   0.71153
 Alpha virt. eigenvalues --    0.72824   0.74251   0.75794   0.77056   0.78637
 Alpha virt. eigenvalues --    0.79117   0.79649   0.81090   0.81789   0.82503
 Alpha virt. eigenvalues --    0.82761   0.83935   0.84800   0.85824   0.86239
 Alpha virt. eigenvalues --    0.86390   0.87469   0.89156   0.89597   0.90507
 Alpha virt. eigenvalues --    0.90963   0.92180   0.93344   0.94064   0.94641
 Alpha virt. eigenvalues --    0.96553   0.96874   0.98786   0.99755   1.00372
 Alpha virt. eigenvalues --    1.02059   1.04086   1.06950   1.07820   1.09395
 Alpha virt. eigenvalues --    1.11012   1.15743   1.16509   1.18422   1.22510
 Alpha virt. eigenvalues --    1.25512   1.26903   1.29435   1.31020   1.33613
 Alpha virt. eigenvalues --    1.35017   1.35939   1.36757   1.39478   1.40683
 Alpha virt. eigenvalues --    1.44365   1.45474   1.46408   1.49308   1.51325
 Alpha virt. eigenvalues --    1.54263   1.58522   1.59847   1.64337   1.64850
 Alpha virt. eigenvalues --    1.69221   1.70051   1.70608   1.71598   1.75925
 Alpha virt. eigenvalues --    1.78978   1.80470   1.80687   1.82572   1.83923
 Alpha virt. eigenvalues --    1.84252   1.85307   1.86557   1.87168   1.89124
 Alpha virt. eigenvalues --    1.89751   1.91094   1.92243   1.93211   1.93903
 Alpha virt. eigenvalues --    1.96375   1.96634   1.97801   1.98229   1.99808
 Alpha virt. eigenvalues --    2.01584   2.01987   2.02495   2.02918   2.03137
 Alpha virt. eigenvalues --    2.03948   2.04293   2.05093   2.06715   2.08467
 Alpha virt. eigenvalues --    2.08910   2.09225   2.11379   2.12162   2.13054
 Alpha virt. eigenvalues --    2.13453   2.14783   2.16913   2.20670   2.20780
 Alpha virt. eigenvalues --    2.22185   2.24505   2.26082   2.27842   2.28651
 Alpha virt. eigenvalues --    2.30034   2.32488   2.36810   2.37675   2.39769
 Alpha virt. eigenvalues --    2.40285   2.42668   2.46318   2.49133   2.50986
 Alpha virt. eigenvalues --    2.51675   2.54267   2.56263   2.56341   2.57208
 Alpha virt. eigenvalues --    2.59413   2.61307   2.61460   2.63525   2.65206
 Alpha virt. eigenvalues --    2.67051   2.68210   2.68903   2.69665   2.70544
 Alpha virt. eigenvalues --    2.71115   2.72594   2.73779   2.77666   2.78052
 Alpha virt. eigenvalues --    2.80825   2.82152   2.83427   2.85029   2.85592
 Alpha virt. eigenvalues --    2.87074   2.88660   2.90299   2.90950   2.92569
 Alpha virt. eigenvalues --    2.97100   2.97397   3.00997   3.04692   3.08413
 Alpha virt. eigenvalues --    3.11671   3.13635   3.16019   3.16984   3.20028
 Alpha virt. eigenvalues --    3.22063   3.24715   3.26904   3.32312   3.34870
 Alpha virt. eigenvalues --    3.37725   3.40846   3.41675   3.42678   3.43012
 Alpha virt. eigenvalues --    3.43214   3.46256   3.46359   3.48279   3.50629
 Alpha virt. eigenvalues --    3.54543   3.95317   4.05236   4.07134   4.11319
 Alpha virt. eigenvalues --    4.27018   4.33002   4.38513   4.43780   4.44883
 Alpha virt. eigenvalues --    4.51536   4.53169   4.60548   4.68929   4.73034
          Condensed to atoms (all electrons):
              1          2          3          4          5          6
     1  C    5.162815   0.344484  -0.078714  -0.121904   0.006747   0.000061
     2  C    0.344484   4.355400   0.561123   0.268590  -0.036086   0.003462
     3  O   -0.078714   0.561123   8.099738  -0.094958   0.001592   0.022363
     4  N   -0.121904   0.268590  -0.094958   7.100447   0.259702  -0.033919
     5  C    0.006747  -0.036086   0.001592   0.259702   5.018136   0.330046
     6  C    0.000061   0.003462   0.022363  -0.033919   0.330046   4.380287
     7  O   -0.000150   0.005045  -0.005550   0.000274  -0.079723   0.551742
     8  N   -0.000076  -0.000849  -0.009356   0.001491  -0.097754   0.260356
     9  C    0.000050   0.000762   0.002578  -0.000520  -0.003303  -0.024515
    10  C   -0.000001  -0.000025  -0.000492  -0.000062   0.006371  -0.034012
    11  H    0.367337  -0.022955   0.005244   0.004565  -0.000152   0.000002
    12  H    0.358146  -0.018701   0.001619   0.001702  -0.000222   0.000004
    13  H    0.364498  -0.022026   0.001008   0.002444  -0.000069  -0.000021
    14  H   -0.000204  -0.001014   0.000406  -0.045104   0.346570  -0.030005
    15  H   -0.000131   0.003937   0.000681  -0.038856   0.371004  -0.020484
    16  H   -0.000008  -0.000004  -0.000507  -0.000438   0.001928  -0.005158
    17  H    0.000000  -0.000015   0.000276  -0.000017  -0.000246   0.002692
    18  H    0.000042   0.000407   0.006282  -0.000032  -0.000064  -0.002514
    19  H    0.000000  -0.000002  -0.000007   0.000000  -0.000118   0.004834
    20  H    0.000000  -0.000013   0.000006  -0.000004   0.000650  -0.004180
    21  H    0.000003   0.000040   0.000687   0.000008  -0.000175  -0.002621
    22  C   -0.000287  -0.022305   0.002693   0.253994  -0.039173   0.000581
    23  H    0.008533  -0.009831   0.000127  -0.029249   0.004227  -0.000018
    24  H   -0.000173   0.001998  -0.000093  -0.035266  -0.004689  -0.000081
    25  C   -0.000944   0.000110   0.000000  -0.058239  -0.002154   0.000123
    26  H   -0.000096   0.001477  -0.000063   0.005929  -0.000454  -0.000029
    27  H    0.000024  -0.000171   0.000003  -0.000148   0.003886   0.000131
    28  O   -0.000005   0.000008   0.000000   0.002101  -0.000055   0.000000
    29  C    0.000000  -0.000002   0.000000  -0.000135   0.000001   0.000000
    30  H    0.000000   0.000000   0.000000   0.000001   0.000000   0.000000
    31  H    0.000000   0.000000   0.000000   0.000010   0.000000   0.000000
    32  H    0.000000   0.000000   0.000000   0.000010   0.000000   0.000000
              7          8          9         10         11         12
     1  C   -0.000150  -0.000076   0.000050  -0.000001   0.367337   0.358146
     2  C    0.005045  -0.000849   0.000762  -0.000025  -0.022955  -0.018701
     3  O   -0.005550  -0.009356   0.002578  -0.000492   0.005244   0.001619
     4  N    0.000274   0.001491  -0.000520  -0.000062   0.004565   0.001702
     5  C   -0.079723  -0.097754  -0.003303   0.006371  -0.000152  -0.000222
     6  C    0.551742   0.260356  -0.024515  -0.034012   0.000002   0.000004
     7  O    8.127568  -0.092415   0.002501  -0.003609   0.000003   0.000000
     8  N   -0.092415   7.022743   0.294169   0.297376   0.000002   0.000001
     9  C    0.002501   0.294169   4.801808  -0.051808  -0.000002  -0.000001
    10  C   -0.003609   0.297376  -0.051808   4.805830   0.000000   0.000000
    11  H    0.000003   0.000002  -0.000002   0.000000   0.544525  -0.023092
    12  H    0.000000   0.000001  -0.000001   0.000000  -0.023092   0.585714
    13  H    0.000038   0.000001  -0.000001   0.000000  -0.021090  -0.030222
    14  H    0.004120   0.006182  -0.004730  -0.000205   0.000004   0.000013
    15  H    0.000228   0.001673   0.000438  -0.000146   0.000002  -0.000007
    16  H   -0.000013  -0.032576   0.383925   0.004791   0.000000   0.000000
    17  H   -0.000096  -0.040366   0.376862  -0.005034   0.000000   0.000000
    18  H    0.000180  -0.045700   0.385197  -0.001128   0.000001  -0.000001
    19  H    0.000826  -0.041650  -0.004002   0.378588   0.000000   0.000000
    20  H    0.016126  -0.033976   0.004590   0.386996   0.000000   0.000000
    21  H    0.001334  -0.046090  -0.000968   0.387823   0.000000   0.000000
    22  C   -0.000304  -0.000092   0.000008   0.000002   0.000429  -0.001672
    23  H   -0.000003   0.000002   0.000000   0.000000   0.000027  -0.001404
    24  H    0.000102  -0.000004  -0.000002   0.000000  -0.000011   0.000186
    25  C    0.000010   0.000003  -0.000002   0.000000  -0.000005   0.000064
    26  H    0.000000   0.000000   0.000000   0.000000  -0.000016   0.001533
    27  H    0.000000   0.000002   0.000001   0.000000   0.000001  -0.000043
    28  O    0.000000   0.000000   0.000000   0.000000   0.000000  -0.000031
    29  C    0.000000   0.000000   0.000000   0.000000   0.000000  -0.000001
    30  H    0.000000   0.000000   0.000000   0.000000   0.000000   0.000000
    31  H    0.000000   0.000000   0.000000   0.000000   0.000000   0.000000
    32  H    0.000000   0.000000   0.000000   0.000000   0.000000   0.000002
             13         14         15         16         17         18
     1  C    0.364498  -0.000204  -0.000131  -0.000008   0.000000   0.000042
     2  C   -0.022026  -0.001014   0.003937  -0.000004  -0.000015   0.000407
     3  O    0.001008   0.000406   0.000681  -0.000507   0.000276   0.006282
     4  N    0.002444  -0.045104  -0.038856  -0.000438  -0.000017  -0.000032
     5  C   -0.000069   0.346570   0.371004   0.001928  -0.000246  -0.000064
     6  C   -0.000021  -0.030005  -0.020484  -0.005158   0.002692  -0.002514
     7  O    0.000038   0.004120   0.000228  -0.000013  -0.000096   0.000180
     8  N    0.000001   0.006182   0.001673  -0.032576  -0.040366  -0.045700
     9  C   -0.000001  -0.004730   0.000438   0.383925   0.376862   0.385197
    10  C    0.000000  -0.000205  -0.000146   0.004791  -0.005034  -0.001128
    11  H   -0.021090   0.000004   0.000002   0.000000   0.000000   0.000001
    12  H   -0.030222   0.000013  -0.000007   0.000000   0.000000  -0.000001
    13  H    0.566265  -0.000003   0.000002   0.000000   0.000000   0.000000
    14  H   -0.000003   0.653501  -0.040372   0.003310   0.000215   0.000205
    15  H    0.000002  -0.040372   0.586034   0.000159   0.000008  -0.000051
    16  H    0.000000   0.003310   0.000159   0.598894  -0.027749  -0.034362
    17  H    0.000000   0.000215   0.000008  -0.027749   0.625681  -0.041781
    18  H    0.000000   0.000205  -0.000051  -0.034362  -0.041781   0.587699
    19  H    0.000000  -0.000025   0.000010   0.000197   0.005902  -0.001472
    20  H    0.000000  -0.000036  -0.000002  -0.000227   0.000200  -0.000252
    21  H    0.000000  -0.000005  -0.000009  -0.000207  -0.001686   0.006589
    22  C   -0.003379   0.000130  -0.004185   0.000014   0.000000  -0.000002
    23  H    0.001362  -0.000235   0.000499   0.000000   0.000000   0.000000
    24  H    0.000247  -0.000638   0.007400   0.000000   0.000000   0.000000
    25  C    0.000119   0.002025  -0.002561  -0.000001   0.000000   0.000000
    26  H    0.000035   0.000051   0.000068   0.000000   0.000000   0.000000
    27  H   -0.000005   0.000156   0.000995  -0.000013   0.000000   0.000000
    28  O   -0.000002  -0.000022   0.000007   0.000000   0.000000   0.000000
    29  C    0.000000   0.000003  -0.000002   0.000000   0.000000   0.000000
    30  H    0.000000   0.000000   0.000000   0.000000   0.000000   0.000000
    31  H    0.000000   0.000000   0.000001   0.000000   0.000000   0.000000
    32  H    0.000000   0.000000   0.000000   0.000000   0.000000   0.000000
             19         20         21         22         23         24
     1  C    0.000000   0.000000   0.000003  -0.000287   0.008533  -0.000173
     2  C   -0.000002  -0.000013   0.000040  -0.022305  -0.009831   0.001998
     3  O   -0.000007   0.000006   0.000687   0.002693   0.000127  -0.000093
     4  N    0.000000  -0.000004   0.000008   0.253994  -0.029249  -0.035266
     5  C   -0.000118   0.000650  -0.000175  -0.039173   0.004227  -0.004689
     6  C    0.004834  -0.004180  -0.002621   0.000581  -0.000018  -0.000081
     7  O    0.000826   0.016126   0.001334  -0.000304  -0.000003   0.000102
     8  N   -0.041650  -0.033976  -0.046090  -0.000092   0.000002  -0.000004
     9  C   -0.004002   0.004590  -0.000968   0.000008   0.000000  -0.000002
    10  C    0.378588   0.386996   0.387823   0.000002   0.000000   0.000000
    11  H    0.000000   0.000000   0.000000   0.000429   0.000027  -0.000011
    12  H    0.000000   0.000000   0.000000  -0.001672  -0.001404   0.000186
    13  H    0.000000   0.000000   0.000000  -0.003379   0.001362   0.000247
    14  H   -0.000025  -0.000036  -0.000005   0.000130  -0.000235  -0.000638
    15  H    0.000010  -0.000002  -0.000009  -0.004185   0.000499   0.007400
    16  H    0.000197  -0.000227  -0.000207   0.000014   0.000000   0.000000
    17  H    0.005902   0.000200  -0.001686   0.000000   0.000000   0.000000
    18  H   -0.001472  -0.000252   0.006589  -0.000002   0.000000   0.000000
    19  H    0.625640  -0.023741  -0.043316   0.000000   0.000000   0.000000
    20  H   -0.023741   0.538186  -0.031722   0.000000   0.000000   0.000000
    21  H   -0.043316  -0.031722   0.608246   0.000000   0.000000   0.000000
    22  C    0.000000   0.000000   0.000000   4.902920   0.377955   0.374393
    23  H    0.000000   0.000000   0.000000   0.377955   0.587724  -0.029942
    24  H    0.000000   0.000000   0.000000   0.374393  -0.029942   0.603546
    25  C    0.000000   0.000000   0.000000   0.358876  -0.041266  -0.050887
    26  H    0.000000   0.000000   0.000000  -0.041472  -0.008556   0.006905
    27  H    0.000000   0.000000   0.000000  -0.038614   0.006490  -0.007991
    28  O    0.000000   0.000000   0.000000  -0.040131   0.005528   0.006014
    29  C    0.000000   0.000000   0.000000   0.004496  -0.000080  -0.000130
    30  H    0.000000   0.000000   0.000000  -0.000255   0.000005   0.000011
    31  H    0.000000   0.000000   0.000000   0.000034   0.000053  -0.000060
    32  H    0.000000   0.000000   0.000000   0.000009  -0.000072   0.000045
             25         26         27         28         29         30
     1  C   -0.000944  -0.000096   0.000024  -0.000005   0.000000   0.000000
     2  C    0.000110   0.001477  -0.000171   0.000008  -0.000002   0.000000
     3  O    0.000000  -0.000063   0.000003   0.000000   0.000000   0.000000
     4  N   -0.058239   0.005929  -0.000148   0.002101  -0.000135   0.000001
     5  C   -0.002154  -0.000454   0.003886  -0.000055   0.000001   0.000000
     6  C    0.000123  -0.000029   0.000131   0.000000   0.000000   0.000000
     7  O    0.000010   0.000000   0.000000   0.000000   0.000000   0.000000
     8  N    0.000003   0.000000   0.000002   0.000000   0.000000   0.000000
     9  C   -0.000002   0.000000   0.000001   0.000000   0.000000   0.000000
    10  C    0.000000   0.000000   0.000000   0.000000   0.000000   0.000000
    11  H   -0.000005  -0.000016   0.000001   0.000000   0.000000   0.000000
    12  H    0.000064   0.001533  -0.000043  -0.000031  -0.000001   0.000000
    13  H    0.000119   0.000035  -0.000005  -0.000002   0.000000   0.000000
    14  H    0.002025   0.000051   0.000156  -0.000022   0.000003   0.000000
    15  H   -0.002561   0.000068   0.000995   0.000007  -0.000002   0.000000
    16  H   -0.000001   0.000000  -0.000013   0.000000   0.000000   0.000000
    17  H    0.000000   0.000000   0.000000   0.000000   0.000000   0.000000
    18  H    0.000000   0.000000   0.000000   0.000000   0.000000   0.000000
    19  H    0.000000   0.000000   0.000000   0.000000   0.000000   0.000000
    20  H    0.000000   0.000000   0.000000   0.000000   0.000000   0.000000
    21  H    0.000000   0.000000   0.000000   0.000000   0.000000   0.000000
    22  C    0.358876  -0.041472  -0.038614  -0.040131   0.004496  -0.000255
    23  H   -0.041266  -0.008556   0.006490   0.005528  -0.000080   0.000005
    24  H   -0.050887   0.006905  -0.007991   0.006014  -0.000130   0.000011
    25  C    4.790072   0.358623   0.364738   0.233109  -0.033995   0.005364
    26  H    0.358623   0.687351  -0.061338  -0.038579  -0.006127  -0.000099
    27  H    0.364738  -0.061338   0.682007  -0.038977  -0.006174  -0.000109
    28  O    0.233109  -0.038579  -0.038977   8.204771   0.257732  -0.032703
    29  C   -0.033995  -0.006127  -0.006174   0.257732   4.708804   0.395002
    30  H    0.005364  -0.000099  -0.000109  -0.032703   0.395002   0.581979
    31  H   -0.009182  -0.002645   0.013427  -0.037445   0.370782  -0.034404
    32  H   -0.008934   0.012899  -0.002720  -0.037423   0.370955  -0.034759
             31         32
     1  C    0.000000   0.000000
     2  C    0.000000   0.000000
     3  O    0.000000   0.000000
     4  N    0.000010   0.000010
     5  C    0.000000   0.000000
     6  C    0.000000   0.000000
     7  O    0.000000   0.000000
     8  N    0.000000   0.000000
     9  C    0.000000   0.000000
    10  C    0.000000   0.000000
    11  H    0.000000   0.000000
    12  H    0.000000   0.000002
    13  H    0.000000   0.000000
    14  H    0.000000   0.000000
    15  H    0.000001   0.000000
    16  H    0.000000   0.000000
    17  H    0.000000   0.000000
    18  H    0.000000   0.000000
    19  H    0.000000   0.000000
    20  H    0.000000   0.000000
    21  H    0.000000   0.000000
    22  C    0.000034   0.000009
    23  H    0.000053  -0.000072
    24  H   -0.000060   0.000045
    25  C   -0.009182  -0.008934
    26  H   -0.002645   0.012899
    27  H    0.013427  -0.002720
    28  O   -0.037445  -0.037423
    29  C    0.370782   0.370955
    30  H   -0.034404  -0.034759
    31  H    0.657512  -0.052186
    32  H   -0.052186   0.658145
 Mulliken atomic charges:
              1
     1  C   -0.410047
     2  C    0.587160
     3  O   -0.516686
     4  N   -0.442417
     5  C   -0.086422
     6  C    0.600872
     7  O   -0.528235
     8  N   -0.443097
     9  C   -0.163037
    10  C   -0.171254
    11  H    0.145184
    12  H    0.126415
    13  H    0.140799
    14  H    0.105705
    15  H    0.133658
    16  H    0.108046
    17  H    0.105154
    18  H    0.140757
    19  H    0.098337
    20  H    0.147398
    21  H    0.122071
    22  C   -0.084661
    23  H    0.128123
    24  H    0.129121
    25  C    0.094934
    26  H    0.084605
    27  H    0.084442
    28  O   -0.483897
    29  C   -0.061129
    30  H    0.119968
    31  H    0.094103
    32  H    0.094029
 Sum of Mulliken atomic charges =   0.00000
 Mulliken charges with hydrogens summed into heavy atoms:
              1
     1  C    0.002350
     2  C    0.587160
     3  O   -0.516686
     4  N   -0.442417
     5  C    0.152941
     6  C    0.600872
     7  O   -0.528235
     8  N   -0.443097
     9  C    0.190920
    10  C    0.196552
    22  C    0.172583
    25  C    0.263981
    28  O   -0.483897
    29  C    0.246971
 Sum of Mulliken charges with hydrogens summed into heavy atoms =   0.00000
 Electronic spatial extent (au):  <R**2>=           3997.6958
 Charge=              0.0000 electrons
 Dipole moment (field-independent basis, Debye):
    X=             -2.9818    Y=             -1.8292    Z=              2.7731  Tot=              4.4640
 Quadrupole moment (field-independent basis, Debye-Ang):
   XX=            -77.8123   YY=            -80.9475   ZZ=            -89.3751
   XY=             -3.4015   XZ=              1.8443   YZ=             -2.3795
 Traceless Quadrupole moment (field-independent basis, Debye-Ang):
   XX=              4.8993   YY=              1.7641   ZZ=             -6.6634
   XY=             -3.4015   XZ=              1.8443   YZ=             -2.3795
 Octapole moment (field-independent basis, Debye-Ang**2):
  XXX=             -5.1253  YYY=             10.7916  ZZZ=              7.6721  XYY=            -13.4643
  XXY=            -26.6203  XXZ=             28.9010  XZZ=             -9.2996  YZZ=             -2.6326
  YYZ=             -3.2358  XYZ=             -0.9912
 Hexadecapole moment (field-independent basis, Debye-Ang**3):
 XXXX=          -3456.6830 YYYY=           -838.1212 ZZZZ=           -459.7563 XXXY=             70.0716
 XXXZ=            -46.8246 YYYX=              8.4191 YYYZ=              0.2809 ZZZX=             26.5866
 ZZZY=              3.0047 XXYY=           -766.5244 XXZZ=           -731.7447 YYZZ=           -213.2289
 XXYZ=            -17.1094 YYXZ=             -2.4541 ZZXY=             -9.2604
 N-N= 9.680478838075D+02 E-N=-3.542086580904D+03  KE= 6.826222245989D+02
 Calling FoFJK, ICntrl=      2127 FMM=F ISym2X=0 I1Cent= 0 IOpClX= 0 NMat=1 NMatS=1 NMatT=0.
 ***** Axes restored to original set *****
 -------------------------------------------------------------------
 Center     Atomic                   Forces (Hartrees/Bohr)
 Number     Number              X              Y              Z
 -------------------------------------------------------------------
      1        6          -0.000003998   -0.000000333    0.000000049
      2        6           0.000999108   -0.001198389   -0.004377120
      3        8          -0.000003682   -0.000002362    0.000002102
      4        7          -0.001073581    0.001662930    0.008004609
      5        6          -0.000821236   -0.000263887   -0.007471126
      6        6           0.000904011   -0.000199901    0.003850873
      7        8           0.000003617   -0.000002267    0.000001381
      8        7          -0.000002078   -0.000001121   -0.000000641
      9        6          -0.000012457    0.000007799    0.000000703
     10        6           0.000003436   -0.000009694    0.000001764
     11        1          -0.000001173    0.000000393    0.000001990
     12        1          -0.000001665    0.000000580   -0.000000063
     13        1          -0.000000193   -0.000000185    0.000001230
     14        1          -0.000000023    0.000003536    0.000000227
     15        1           0.000004204   -0.000001057    0.000000292
     16        1           0.000000235   -0.000002190   -0.000000771
     17        1           0.000000124   -0.000003466    0.000003908
     18        1           0.000000495   -0.000000950    0.000005141
     19        1          -0.000000942   -0.000000466    0.000001404
     20        1           0.000002540   -0.000000335    0.000002353
     21        1          -0.000002988    0.000000311    0.000004054
     22        6           0.000004370   -0.000000973   -0.000001872
     23        1           0.000000325   -0.000000938   -0.000000521
     24        1           0.000001582    0.000001125   -0.000000094
     25        6          -0.000002186   -0.000001780    0.000000843
     26        1          -0.000000561    0.000001829   -0.000003508
     27        1           0.000001591    0.000002765   -0.000002297
     28        8           0.000004525   -0.000002424   -0.000010241
     29        6          -0.000006866    0.000007429    0.000002732
     30        1           0.000001618    0.000000872   -0.000006096
     31        1           0.000001466    0.000001221   -0.000005807
     32        1           0.000000381    0.000001926   -0.000005500
 -------------------------------------------------------------------
 Cartesian Forces:  Max     0.008004609 RMS     0.001298374

 GradGradGradGradGradGradGradGradGradGradGradGradGradGradGradGradGradGrad
 Berny optimization.
 Internal  Forces:  Max     0.003954239 RMS     0.000536074
 Search for a local minimum.
 Step number   1 out of a maximum of  155 on scan point     1 out of    37
 All quantities printed in internal units (Hartrees-Bohrs-Radians)
 Mixed Optimization -- En-DIIS/RFO-DIIS
 Second derivative matrix not updated -- first step.
 ITU=  0
     Eigenvalues ---    0.00360   0.00480   0.00733   0.00895   0.00896
     Eigenvalues ---    0.00929   0.01080   0.01103   0.01517   0.01539
     Eigenvalues ---    0.01641   0.02021   0.02021   0.02672   0.04194
     Eigenvalues ---    0.05363   0.05522   0.05896   0.06391   0.06915
     Eigenvalues ---    0.07283   0.07430   0.07487   0.07539   0.07627
     Eigenvalues ---    0.09380   0.09959   0.10038   0.10512   0.11080
     Eigenvalues ---    0.11183   0.12856   0.13606   0.16000   0.16000
     Eigenvalues ---    0.16000   0.16000   0.16000   0.16000   0.16000
     Eigenvalues ---    0.16000   0.16000   0.16000   0.16000   0.16000
     Eigenvalues ---    0.21873   0.21927   0.21947   0.22032   0.23196
     Eigenvalues ---    0.24648   0.24695   0.24835   0.24996   0.25000
     Eigenvalues ---    0.25000   0.25000   0.28447   0.29363   0.30213
     Eigenvalues ---    0.33285   0.33316   0.33560   0.33563   0.33830
     Eigenvalues ---    0.34043   0.34146   0.34260   0.34299   0.34321
     Eigenvalues ---    0.34324   0.34348   0.34427   0.34558   0.34891
     Eigenvalues ---    0.34898   0.34938   0.34993   0.35877   0.36934
     Eigenvalues ---    0.36946   0.37257   0.43504   0.43763   0.50004
     Eigenvalues ---    0.50004   0.91707   0.928441000.000001000.00000
     Eigenvalues --- 1000.000001000.000001000.000001000.000001000.00000
     Eigenvalues --- 1000.000001000.000001000.000001000.000001000.00000
     Eigenvalues --- 1000.000001000.000001000.000001000.000001000.00000
     Eigenvalues --- 1000.000001000.000001000.000001000.000001000.00000
     Eigenvalues --- 1000.000001000.000001000.000001000.000001000.00000
     Eigenvalues --- 1000.000001000.000001000.000001000.000001000.00000
     Eigenvalues --- 1000.000001000.000001000.000001000.000001000.00000
     Eigenvalues --- 1000.000001000.000001000.000001000.000001000.00000
     Eigenvalues --- 1000.000001000.000001000.000001000.000001000.00000
     Eigenvalues --- 1000.000001000.000001000.000001000.000001000.00000
     Eigenvalues --- 1000.000001000.000001000.000001000.000001000.00000
 RFO step:  Lambda= 0.00000000D+00 EMin= 3.60373946D-03
 Linear search not attempted -- first point.
 Iteration  1 RMS(Cart)=  0.00019586 RMS(Int)=  0.00000001
 Iteration  2 RMS(Cart)=  0.00000002 RMS(Int)=  0.00000000
 Iteration  1 RMS(Cart)=  0.00000000 RMS(Int)=  0.00000000
 Variable       Old X    -DE/DX   Delta X   Delta X   Delta X     New X
                                 (Linear)    (Quad)   (Total)
    R1        2.87541   0.00000   0.00000  -0.00001  -0.00001   2.87540
    R2        2.05841   0.00000   0.00000   0.00000   0.00000   2.05841
    R3        2.06787   0.00000   0.00000   0.00000   0.00000   2.06787
    R4        2.06893   0.00000   0.00000   0.00000   0.00000   2.06893
    R5        2.32156   0.00000   0.00000   0.00000   0.00000   2.32156
    R6        2.59861   0.00000   0.00000   0.00001   0.00001   2.59862
    R7        2.77575   0.00000   0.00000  -0.00001  -0.00001   2.77574
    R8        2.75927   0.00000   0.00000   0.00001   0.00001   2.75928
    R9        2.91171   0.00000   0.00000   0.00000   0.00000   2.91171
   R10        2.06792   0.00000   0.00000  -0.00001  -0.00001   2.06791
   R11        2.06616   0.00000   0.00000   0.00000   0.00000   2.06616
   R12        2.31649   0.00000   0.00000   0.00000   0.00000   2.31649
   R13        2.59861   0.00001   0.00000   0.00002   0.00002   2.59863
   R14        2.75460   0.00000   0.00000   0.00000   0.00000   2.75459
   R15        2.75946   0.00000   0.00000   0.00000   0.00000   2.75946
   R16        2.05776   0.00000   0.00000   0.00001   0.00001   2.05777
   R17        2.06829   0.00000   0.00000   0.00000   0.00000   2.06829
   R18        2.07257   0.00000   0.00000  -0.00001  -0.00001   2.07256
   R19        2.06747   0.00000   0.00000   0.00000   0.00000   2.06747
   R20        2.05686   0.00000   0.00000   0.00000   0.00000   2.05686
   R21        2.07617   0.00000   0.00000   0.00001   0.00001   2.07618
   R22        2.05852   0.00000   0.00000   0.00000   0.00000   2.05852
   R23        2.07084   0.00000   0.00000   0.00000   0.00000   2.07084
   R24        2.89253   0.00000   0.00000   0.00000   0.00000   2.89253
   R25        2.08553   0.00000   0.00000   0.00000   0.00000   2.08553
   R26        2.08499   0.00000   0.00000  -0.00001  -0.00001   2.08499
   R27        2.66739   0.00000   0.00000   0.00000   0.00000   2.66739
   R28        2.67053  -0.00001   0.00000  -0.00002  -0.00002   2.67051
   R29        2.06398   0.00000   0.00000   0.00000   0.00000   2.06398
   R30        2.08078   0.00000   0.00000   0.00000   0.00000   2.08078
   R31        2.08074   0.00000   0.00000   0.00000   0.00000   2.08074
    A1        1.86668   0.00000   0.00000   0.00001   0.00001   1.86669
    A2        1.96287   0.00000   0.00000   0.00000   0.00000   1.96287
    A3        1.94479   0.00000   0.00000   0.00000   0.00000   1.94478
    A4        1.90376   0.00000   0.00000   0.00000   0.00000   1.90376
    A5        1.89994   0.00000   0.00000   0.00000   0.00000   1.89994
    A6        1.88479   0.00000   0.00000   0.00000   0.00000   1.88478
    A7        2.10164   0.00000   0.00000   0.00000   0.00000   2.10164
    A8        2.06592   0.00000   0.00000   0.00002   0.00002   2.06594
    A9        2.11546   0.00000   0.00000  -0.00002  -0.00002   2.11544
   A10        2.08115  -0.00013   0.00000  -0.00002  -0.00002   2.08113
   A11        2.16347   0.00035   0.00000   0.00001   0.00001   2.16348
   A12        2.02948  -0.00006   0.00000   0.00000   0.00000   2.02948
   A13        1.98629  -0.00001   0.00000   0.00000   0.00000   1.98629
   A14        1.92983   0.00008   0.00000  -0.00003  -0.00003   1.92980
   A15        1.87325  -0.00020   0.00000   0.00000   0.00000   1.87325
   A16        1.96704   0.00169   0.00000  -0.00001  -0.00001   1.96704
   A17        1.82482  -0.00182   0.00000   0.00003   0.00003   1.82484
   A18        1.87356   0.00005   0.00000   0.00001   0.00001   1.87357
   A19        2.05814  -0.00001   0.00000  -0.00003  -0.00003   2.05811
   A20        2.07264   0.00001   0.00000   0.00002   0.00002   2.07266
   A21        2.14056   0.00000   0.00000  -0.00001  -0.00001   2.14054
   A22        2.15514   0.00001   0.00000   0.00003   0.00003   2.15517
   A23        2.02117   0.00000   0.00000   0.00002   0.00002   2.02119
   A24        1.99200  -0.00001   0.00000  -0.00004  -0.00004   1.99195
   A25        1.94833   0.00000   0.00000   0.00001   0.00001   1.94833
   A26        1.90130   0.00000   0.00000  -0.00001  -0.00001   1.90129
   A27        1.93975   0.00000   0.00000   0.00000   0.00000   1.93975
   A28        1.88247   0.00000   0.00000  -0.00002  -0.00002   1.88245
   A29        1.88259   0.00000   0.00000   0.00000   0.00000   1.88260
   A30        1.90823   0.00000   0.00000   0.00003   0.00003   1.90826
   A31        1.90435   0.00000   0.00000   0.00000   0.00000   1.90436
   A32        1.90437   0.00000   0.00000   0.00000   0.00000   1.90436
   A33        1.94414   0.00000   0.00000   0.00001   0.00001   1.94415
   A34        1.92089   0.00000   0.00000   0.00002   0.00002   1.92090
   A35        1.89979   0.00000   0.00000  -0.00002  -0.00002   1.89977
   A36        1.89032   0.00000   0.00000  -0.00001  -0.00001   1.89031
   A37        1.92627   0.00000   0.00000   0.00000   0.00000   1.92627
   A38        1.91191   0.00000   0.00000   0.00000   0.00000   1.91191
   A39        1.96292   0.00000   0.00000   0.00001   0.00001   1.96293
   A40        1.86406   0.00000   0.00000  -0.00002  -0.00002   1.86404
   A41        1.89346   0.00000   0.00000   0.00000   0.00000   1.89346
   A42        1.90242   0.00000   0.00000   0.00001   0.00001   1.90242
   A43        1.91710   0.00000   0.00000   0.00000   0.00000   1.91710
   A44        1.93003   0.00000   0.00000   0.00001   0.00001   1.93004
   A45        1.87120   0.00000   0.00000  -0.00001  -0.00001   1.87119
   A46        1.86935   0.00000   0.00000   0.00000   0.00000   1.86935
   A47        1.94210   0.00000   0.00000  -0.00001  -0.00001   1.94210
   A48        1.93477   0.00000   0.00000   0.00000   0.00000   1.93477
   A49        1.97365   0.00000   0.00000   0.00002   0.00002   1.97367
   A50        1.87173   0.00000   0.00000   0.00001   0.00001   1.87173
   A51        1.95028   0.00000   0.00000   0.00001   0.00001   1.95029
   A52        1.95094   0.00000   0.00000   0.00001   0.00001   1.95095
   A53        1.90030   0.00000   0.00000  -0.00001  -0.00001   1.90029
   A54        1.90036   0.00000   0.00000  -0.00001  -0.00001   1.90035
   A55        1.88920   0.00000   0.00000  -0.00001  -0.00001   1.88920
    D1       -0.04049   0.00000   0.00000  -0.00002  -0.00002  -0.04050
    D2        3.08187   0.00000   0.00000   0.00004   0.00004   3.08191
    D3       -2.13003   0.00000   0.00000  -0.00002  -0.00002  -2.13004
    D4        0.99233   0.00000   0.00000   0.00003   0.00003   0.99236
    D5        2.03398   0.00000   0.00000  -0.00002  -0.00002   2.03397
    D6       -1.12685   0.00000   0.00000   0.00004   0.00004  -1.12681
    D7        2.98704   0.00065   0.00000  -0.00006  -0.00006   2.98698
    D8       -0.00460  -0.00065   0.00000   0.00001   0.00001  -0.00459
    D9       -0.17394   0.00065   0.00000  -0.00001  -0.00001  -0.17395
   D10        3.11760  -0.00065   0.00000   0.00006   0.00006   3.11766
   D11       -0.54681  -0.00395   0.00000   0.00000   0.00000  -0.54681
   D12        1.68783  -0.00159   0.00000  -0.00003  -0.00003   1.68780
   D13       -2.55700  -0.00159   0.00000  -0.00003  -0.00003  -2.55703
   D14        2.45614  -0.00271   0.00000  -0.00006  -0.00006   2.45607
   D15       -1.59240  -0.00035   0.00000  -0.00010  -0.00010  -1.59250
   D16        0.44596  -0.00035   0.00000  -0.00010  -0.00010   0.44586
   D17        0.21230   0.00063   0.00000  -0.00009  -0.00009   0.21222
   D18        2.25996   0.00063   0.00000  -0.00011  -0.00011   2.25986
   D19       -1.90481   0.00063   0.00000  -0.00009  -0.00009  -1.90490
   D20       -2.78339  -0.00063   0.00000  -0.00001  -0.00001  -2.78341
   D21       -0.73573  -0.00063   0.00000  -0.00004  -0.00004  -0.73577
   D22        1.38268  -0.00063   0.00000  -0.00002  -0.00002   1.38266
   D23       -1.18833   0.00098   0.00000  -0.00018  -0.00018  -1.18851
   D24        2.11363   0.00098   0.00000   0.00000   0.00000   2.11363
   D25        2.87946  -0.00058   0.00000  -0.00014  -0.00014   2.87932
   D26       -0.10176  -0.00058   0.00000   0.00004   0.00004  -0.10172
   D27        0.85023  -0.00040   0.00000  -0.00016  -0.00016   0.85007
   D28       -2.13099  -0.00040   0.00000   0.00001   0.00001  -2.13098
   D29       -0.58094   0.00000   0.00000  -0.00022  -0.00022  -0.58116
   D30        3.08774   0.00000   0.00000  -0.00022  -0.00022   3.08751
   D31        2.72900   0.00000   0.00000  -0.00003  -0.00003   2.72897
   D32        0.11450   0.00000   0.00000  -0.00004  -0.00004   0.11446
   D33        0.68377   0.00000   0.00000   0.00002   0.00002   0.68380
   D34        2.76072   0.00000   0.00000  -0.00001  -0.00001   2.76071
   D35       -1.41890   0.00000   0.00000   0.00002   0.00002  -1.41888
   D36       -2.97707   0.00000   0.00000   0.00004   0.00004  -2.97703
   D37       -0.90013   0.00000   0.00000   0.00001   0.00001  -0.90011
   D38        1.20344   0.00000   0.00000   0.00004   0.00004   1.20348
   D39       -2.70088   0.00000   0.00000  -0.00001  -0.00001  -2.70089
   D40       -0.60159   0.00000   0.00000   0.00001   0.00001  -0.60158
   D41        1.48449   0.00000   0.00000   0.00000   0.00000   1.48449
   D42        0.91841   0.00000   0.00000  -0.00004  -0.00004   0.91838
   D43        3.01770   0.00000   0.00000  -0.00001  -0.00001   3.01769
   D44       -1.17941   0.00000   0.00000  -0.00002  -0.00002  -1.17943
   D45        1.03501   0.00000   0.00000  -0.00004  -0.00004   1.03497
   D46       -1.02455   0.00000   0.00000  -0.00005  -0.00005  -1.02460
   D47       -3.13568   0.00000   0.00000  -0.00005  -0.00005  -3.13573
   D48       -1.10074   0.00000   0.00000  -0.00005  -0.00005  -1.10079
   D49        3.12289   0.00000   0.00000  -0.00005  -0.00005   3.12283
   D50        1.01176   0.00000   0.00000  -0.00006  -0.00006   1.01170
   D51       -3.12435   0.00000   0.00000  -0.00003  -0.00003  -3.12438
   D52        1.09928   0.00000   0.00000  -0.00004  -0.00004   1.09924
   D53       -1.01185   0.00000   0.00000  -0.00004  -0.00004  -1.01189
   D54        3.12783   0.00000   0.00000   0.00002   0.00002   3.12785
   D55       -1.05872   0.00000   0.00000   0.00001   0.00001  -1.05871
   D56        1.01971   0.00000   0.00000   0.00001   0.00001   1.01972
   D57       -3.13873   0.00000   0.00000   0.00003   0.00003  -3.13870
   D58       -1.05754   0.00000   0.00000   0.00003   0.00003  -1.05751
   D59        1.06280   0.00000   0.00000   0.00003   0.00003   1.06283
         Item               Value     Threshold  Converged?
 Maximum Force            0.000012     0.000450     YES
 RMS     Force            0.000002     0.000300     YES
 Maximum Displacement     0.000732     0.001800     YES
 RMS     Displacement     0.000196     0.001200     YES
 Predicted change in Energy=-3.094328D-09
 Optimization completed.
    -- Stationary point found.
                           ----------------------------
                           !   Optimized Parameters   !
                           ! (Angstroms and Degrees)  !
 --------------------------                            --------------------------
 ! Name  Definition              Value          Derivative Info.                !
 --------------------------------------------------------------------------------
 ! R1    R(1,2)                  1.5216         -DE/DX =    0.0                 !
 ! R2    R(1,11)                 1.0893         -DE/DX =    0.0                 !
 ! R3    R(1,12)                 1.0943         -DE/DX =    0.0                 !
 ! R4    R(1,13)                 1.0948         -DE/DX =    0.0                 !
 ! R5    R(2,3)                  1.2285         -DE/DX =    0.0                 !
 ! R6    R(2,4)                  1.3751         -DE/DX =    0.0                 !
 ! R7    R(4,5)                  1.4689         -DE/DX =    0.0                 !
 ! R8    R(4,22)                 1.4601         -DE/DX =    0.0                 !
 ! R9    R(5,6)                  1.5408         -DE/DX =    0.0                 !
 ! R10   R(5,14)                 1.0943         -DE/DX =    0.0                 !
 ! R11   R(5,15)                 1.0934         -DE/DX =    0.0                 !
 ! R12   R(6,7)                  1.2258         -DE/DX =    0.0                 !
 ! R13   R(6,8)                  1.3751         -DE/DX =    0.0                 !
 ! R14   R(8,9)                  1.4577         -DE/DX =    0.0                 !
 ! R15   R(8,10)                 1.4602         -DE/DX =    0.0                 !
 ! R16   R(9,16)                 1.0889         -DE/DX =    0.0                 !
 ! R17   R(9,17)                 1.0945         -DE/DX =    0.0                 !
 ! R18   R(9,18)                 1.0968         -DE/DX =    0.0                 !
 ! R19   R(10,19)                1.0941         -DE/DX =    0.0                 !
 ! R20   R(10,20)                1.0884         -DE/DX =    0.0                 !
 ! R21   R(10,21)                1.0987         -DE/DX =    0.0                 !
 ! R22   R(22,23)                1.0893         -DE/DX =    0.0                 !
 ! R23   R(22,24)                1.0958         -DE/DX =    0.0                 !
 ! R24   R(22,25)                1.5307         -DE/DX =    0.0                 !
 ! R25   R(25,26)                1.1036         -DE/DX =    0.0                 !
 ! R26   R(25,27)                1.1033         -DE/DX =    0.0                 !
 ! R27   R(25,28)                1.4115         -DE/DX =    0.0                 !
 ! R28   R(28,29)                1.4132         -DE/DX =    0.0                 !
 ! R29   R(29,30)                1.0922         -DE/DX =    0.0                 !
 ! R30   R(29,31)                1.1011         -DE/DX =    0.0                 !
 ! R31   R(29,32)                1.1011         -DE/DX =    0.0                 !
 ! A1    A(2,1,11)             106.9528         -DE/DX =    0.0                 !
 ! A2    A(2,1,12)             112.4641         -DE/DX =    0.0                 !
 ! A3    A(2,1,13)             111.4281         -DE/DX =    0.0                 !
 ! A4    A(11,1,12)            109.0772         -DE/DX =    0.0                 !
 ! A5    A(11,1,13)            108.8585         -DE/DX =    0.0                 !
 ! A6    A(12,1,13)            107.9902         -DE/DX =    0.0                 !
 ! A7    A(1,2,3)              120.4151         -DE/DX =    0.0                 !
 ! A8    A(1,2,4)              118.3686         -DE/DX =    0.0                 !
 ! A9    A(3,2,4)              121.2068         -DE/DX =    0.0                 !
 ! A10   A(2,4,5)              119.2413         -DE/DX =   -0.0001              !
 ! A11   A(2,4,22)             123.9579         -DE/DX =    0.0004              !
 ! A12   A(5,4,22)             116.2806         -DE/DX =   -0.0001              !
 ! A13   A(4,5,6)              113.8058         -DE/DX =    0.0                 !
 ! A14   A(4,5,14)             110.5709         -DE/DX =    0.0001              !
 ! A15   A(4,5,15)             107.3293         -DE/DX =   -0.0002              !
 ! A16   A(6,5,14)             112.7033         -DE/DX =    0.0017              !
[...]
   D21       -0.75040  -0.00189  -0.00034  -0.00052  -0.00086  -0.75127
   D22        1.38030  -0.00188  -0.00030   0.00017  -0.00013   1.38017
   D23       -0.36076   0.00006   0.00322  -0.00098   0.00224  -0.35852
   D24        2.98629  -0.00318   0.00000   0.00000   0.00000   2.98629
   D25       -2.52880  -0.00171   0.00383   0.00164   0.00547  -2.52334
   D26        0.81825  -0.00495   0.00061   0.00262   0.00322   0.82148
   D27        1.73764  -0.00151   0.00439   0.00071   0.00510   1.74274
   D28       -1.19849  -0.00474   0.00117   0.00168   0.00286  -1.19563
   D29       -0.29012   0.00153   0.00442  -0.01163  -0.00721  -0.29733
   D30       -3.13983   0.00152   0.00128  -0.00249  -0.00121  -3.14104
   D31        3.05826  -0.00162   0.00125  -0.01068  -0.00943   3.04884
   D32        0.20856  -0.00163  -0.00189  -0.00154  -0.00343   0.20513
   D33        0.70004   0.00002  -0.00864  -0.02253  -0.03118   0.66886
   D34        2.75956  -0.00011  -0.00790  -0.02381  -0.03170   2.72785
   D35       -1.44138  -0.00003  -0.00836  -0.02283  -0.03120  -1.47258
   D36       -2.72725   0.00002  -0.00543  -0.03130  -0.03673  -2.76397
   D37       -0.66773  -0.00010  -0.00468  -0.03257  -0.03725  -0.70498
   D38        1.41452  -0.00002  -0.00515  -0.03160  -0.03675   1.37777
   D39       -2.36518  -0.00008   0.00311  -0.00719  -0.00408  -2.36927
   D40       -0.27236  -0.00003   0.00346  -0.00669  -0.00323  -0.27559
   D41        1.82003  -0.00004   0.00332  -0.00646  -0.00314   1.81689
   D42        1.04182   0.00002   0.00000   0.00086   0.00086   1.04268
   D43        3.13464   0.00007   0.00034   0.00137   0.00172   3.13636
   D44       -1.05615   0.00005   0.00021   0.00160   0.00180  -1.05435
   D45        1.03744  -0.00003   0.00014  -0.00115  -0.00101   1.03643
   D46       -1.02039  -0.00004   0.00010  -0.00126  -0.00116  -1.02155
   D47       -3.13244  -0.00003   0.00006  -0.00108  -0.00102  -3.13346
   D48       -1.07369   0.00002   0.00027  -0.00045  -0.00018  -1.07387
   D49       -3.13153   0.00000   0.00023  -0.00055  -0.00032  -3.13185
   D50        1.03961   0.00002   0.00020  -0.00038  -0.00018   1.03943
   D51       -3.09422   0.00003   0.00025  -0.00002   0.00023  -3.09399
   D52        1.13114   0.00002   0.00021  -0.00012   0.00009   1.13122
   D53       -0.98091   0.00003   0.00017   0.00005   0.00022  -0.98069
   D54       -3.12156  -0.00005  -0.00091  -0.00454  -0.00545  -3.12701
   D55       -1.02852  -0.00007  -0.00096  -0.00471  -0.00567  -1.03419
   D56        1.04627  -0.00004  -0.00102  -0.00442  -0.00544   1.04083
   D57        3.14147   0.00002   0.00025   0.00210   0.00234  -3.13938
   D58       -1.06043   0.00001   0.00026   0.00197   0.00223  -1.05819
   D59        1.05900   0.00003   0.00025   0.00217   0.00242   1.06142
         Item               Value     Threshold  Converged?
 Maximum Force            0.000407     0.000450     YES
 RMS     Force            0.000087     0.000300     YES
 Maximum Displacement     0.081065     0.001800     NO 
 RMS     Displacement     0.011323     0.001200     NO 
 Predicted change in Energy=-7.667451D-06
 GradGradGradGradGradGradGradGradGradGradGradGradGradGradGradGradGradGrad

                          Input orientation:                          
 ---------------------------------------------------------------------
 Center     Atomic      Atomic             Coordinates (Angstroms)
 Number     Number       Type             X           Y           Z
 ---------------------------------------------------------------------
      1          6           0        0.846679    3.096085    0.500479
      2          6           0        0.094711    2.046544   -0.301080
      3          8           0       -0.854978    2.353738   -1.004683
      4          7           0        0.565774    0.728346   -0.304109
      5          6           0       -0.427588   -0.334485   -0.470860
      6          6           0       -1.824157   -0.016725    0.111682
      7          8           0       -1.975078    0.845270    0.966309
      8          7           0       -2.820697   -0.916271   -0.199610
      9          6           0       -2.748842   -1.893017   -1.277674
     10          6           0       -4.158331   -0.661553    0.325445
     11          1           0        0.303495    4.032336    0.377576
     12          1           0        1.871830    3.236203    0.142263
     13          1           0        0.887216    2.839213    1.563280
     14          1           0       -0.521838   -0.589126   -1.531806
     15          1           0       -0.061159   -1.231122    0.039122
     16          1           0       -1.750151   -2.319815   -1.371268
     17          1           0       -3.431316   -2.716286   -1.046740
     18          1           0       -3.044618   -1.472014   -2.249471
     19          1           0       -4.585751   -1.590208    0.719387
     20          1           0       -4.079828    0.075246    1.122182
     21          1           0       -4.825547   -0.274587   -0.456203
     22          6           0        1.750625    0.331463    0.461480
     23          1           0        2.276902    1.212351    0.824098
     24          1           0        1.475953   -0.262808    1.343872
     25          6           0        2.727058   -0.469732   -0.400881
     26          1           0        3.044046    0.140923   -1.262478
     27          1           0        2.243242   -1.375111   -0.806912
     28          8           0        3.826154   -0.816886    0.416180
     29          6           0        4.816466   -1.549912   -0.274184
     30          1           0        5.614361   -1.769308    0.438913
     31          1           0        4.421562   -2.499348   -0.668990
     32          1           0        5.237805   -0.977222   -1.115047
 ---------------------------------------------------------------------
                    Distance matrix (angstroms):
                    1          2          3          4          5
     1  C    0.000000
     2  C    1.519700   0.000000
     3  O    2.390027   1.221202   0.000000
     4  N    2.516438   1.399842   2.269634   0.000000
     5  C    3.786300   2.443547   2.773837   1.464303   0.000000
     6  C    4.119966   2.847720   2.793684   2.537673   1.546199
     7  O    3.639435   2.708019   2.723033   2.843162   2.419092
     8  N    5.480764   4.157905   3.899378   3.766148   2.477705
     9  C    6.401620   4.955772   4.657914   4.336594   2.910015
    10  C    6.261039   5.080816   4.666193   4.964406   3.828775
    11  H    1.089367   2.108917   2.463816   3.383761   4.508154
    12  H    1.094937   2.184031   3.087023   2.862582   4.291043
    13  H    1.094153   2.175367   3.140917   2.836587   3.992341
    14  H    4.425359   2.973479   3.008203   2.103775   1.095140
    15  H    4.445418   3.298959   3.817184   2.085753   1.094673
    16  H    6.291180   4.859415   4.772611   3.974119   2.549793
    17  H    7.380975   5.972724   5.687216   5.328576   3.876467
    18  H    6.600905   5.102144   4.580437   4.654132   3.362481
    19  H    7.177783   6.014486   5.696121   5.741206   4.503760
    20  H    5.812268   4.830990   4.484945   4.903312   4.005561
    21  H    6.667145   5.442486   4.793156   5.485923   4.398391
    22  C    2.908913   2.503008   3.609486   1.465440   2.461169
    23  H    2.387199   2.593041   3.802088   2.105961   3.374001
    24  H    3.519867   3.153855   4.218443   2.127593   2.630942
    25  C    4.130778   3.642919   4.600819   2.473035   3.158319
    26  H    4.082820   3.640639   4.490589   2.721280   3.592341
    27  H    4.863255   4.071827   4.852050   2.737012   2.886029
    28  O    4.918914   4.757874   5.829640   3.679217   4.371941
    29  C    6.159919   5.935503   6.923683   4.822835   5.386655
    30  H    6.812241   6.750915   7.806139   5.681424   6.276268
    31  H    6.742129   6.286663   7.176837   5.041650   5.314145
    32  H    6.203526   6.021389   6.944744   5.039291   5.738010
                    6          7          8          9         10
     6  C    0.000000
     7  O    1.223193   0.000000
     8  N    1.378106   2.275404   0.000000
     9  C    2.511139   3.623863   1.456509   0.000000
    10  C    2.431021   2.729068   1.459393   2.464377   0.000000
    11  H    4.581757   3.961804   5.880682   6.867781   6.476357
    12  H    4.923697   4.603729   6.275326   7.048101   7.182541
    13  H    4.197030   3.539055   5.564176   6.609533   6.264594
    14  H    2.173644   3.226450   2.677036   2.593118   4.083957
    15  H    2.142005   2.972233   2.787683   3.065240   4.146470
    16  H    2.740226   3.941145   2.118676   1.090091   3.380532
    17  H    3.348512   4.342543   2.080995   1.094017   2.575533
    18  H    3.030253   4.105480   2.135632   1.099598   2.920171
    19  H    3.235979   3.578845   2.100991   2.730235   1.095572
    20  H    2.473382   2.246598   2.077414   3.377113   1.088037
    21  H    3.065506   3.376802   2.120618   2.758049   1.098132
    22  C    3.608692   3.794696   4.784440   5.312077   5.993358
    23  H    4.340144   4.270165   5.618231   6.270475   6.721041
    24  H    3.531228   3.644174   4.612000   5.232492   5.739455
    25  C    4.602336   5.070358   5.569335   5.725381   6.926249
    26  H    5.060885   5.536714   6.053309   6.139600   7.418874
    27  H    4.385517   5.086122   5.120823   5.040907   6.539995
    28  O    5.714804   6.059678   6.676054   6.874428   7.986511
    29  C    6.826231   7.307585   7.663767   7.639280   9.038568
    30  H    7.649194   8.044486   8.502093   8.538450   9.835929
    31  H    6.766229   7.401194   7.428106   7.221691   8.830682
    32  H    7.231785   7.725232   8.110560   8.040625   9.511153
                   11         12         13         14         15
    11  H    0.000000
    12  H    1.774507   0.000000
    13  H    1.780496   1.773797   0.000000
    14  H    5.068019   4.813033   4.828922   0.000000
    15  H    5.286919   4.868683   4.448606   1.758465   0.000000
    16  H    6.901140   6.802857   6.494832   2.128335   2.455025
    17  H    7.843557   8.060348   7.505031   3.636642   3.839632
    18  H    6.957665   7.215203   6.970155   2.767482   3.767853
    19  H    7.458858   8.082553   7.091212   4.752413   4.589515
    20  H    5.952018   6.809855   5.701369   4.488244   4.362261
    21  H    6.749211   7.585425   6.812468   4.447220   4.884639
    22  C    3.974630   2.924740   2.871976   3.159867   2.429531
    23  H    3.470739   2.173697   2.263691   4.077811   3.471783
    24  H    4.555947   3.720707   3.165009   3.516699   2.236675
    25  C    5.171873   3.841923   4.265215   3.442175   2.923606
    26  H    5.034232   3.595573   4.462912   3.649799   3.635789
    27  H    5.865672   4.722615   5.021667   2.964610   2.459018
    28  O    5.993794   4.507987   4.829105   4.769859   3.927463
    29  C    7.207856   5.634821   6.170875   5.567963   4.898062
    30  H    7.865629   6.256970   6.696907   6.552060   5.714980
    31  H    7.792090   6.328965   6.780476   5.369413   4.712175
    32  H    7.188255   5.537469   6.377008   5.787727   5.429142
                   16         17         18         19         20
    16  H    0.000000
    17  H    1.757505   0.000000
    18  H    1.779227   1.773220   0.000000
    19  H    3.597749   2.391648   3.347116   0.000000
    20  H    4.169053   3.594084   3.851457   1.786599   0.000000
    21  H    3.805044   2.873066   2.796668   1.780553   1.780388
    22  C    4.758537   6.198066   5.796218   6.626387   5.873360
    23  H    5.789041   7.177603   6.706059   7.413590   6.464509
    24  H    4.691589   5.984636   5.899988   6.236684   5.570468
    25  C    4.940634   6.587087   6.142809   7.482490   6.996457
    26  H    5.389934   7.080995   6.375543   8.070837   7.512688
    27  H    4.142241   5.835828   5.481955   7.000786   6.768024
    28  O    6.045572   7.643214   7.398810   8.452817   7.987420
    29  C    6.702001   8.365595   8.105830   9.454655   9.150684
    30  H    7.603674   9.215650   9.071588  10.205539   9.891740
    31  H    6.214135   7.864951   7.700466   9.158920   9.061481
    32  H    7.120375   8.842096   8.374381  10.012150   9.640081
                   21         22         23         24         25
    21  H    0.000000
    22  C    6.667494   0.000000
    23  H    7.368510   1.088312   0.000000
    24  H    6.553572   1.098736   1.757208   0.000000
    25  C    7.555328   1.529379   2.128994   2.156907   0.000000
    26  H    7.921693   2.163625   2.467846   3.068383   1.102601
    27  H    7.162537   2.182632   3.058804   2.540044   1.103925
    28  O    8.712466   2.372463   2.585417   2.586709   1.412840
    29  C    9.727693   3.671533   3.909694   3.928584   2.355519
    30  H   10.584285   4.397977   4.491913   4.496100   3.275770
    31  H    9.513351   4.052820   4.539337   4.210740   2.657549
    32  H   10.109343   4.044566   4.161906   4.550627   2.659216
                   26         27         28         29         30
    26  H    0.000000
    27  H    1.774030   0.000000
    28  O    2.084942   2.076819   0.000000
    29  C    2.641424   2.633598   1.412320   0.000000
    30  H    3.626325   3.615510   2.026156   1.092372   0.000000
    31  H    3.036578   2.455200   2.088727   1.101476   1.784146
    32  H    2.466691   3.036555   2.088809   1.101159   1.784373
                   31         32
    31  H    0.000000
    32  H    1.783840   0.000000
 Stoichiometry    C9H18N2O3
 Framework group  C1[X(C9H18N2O3)]
 Deg. of freedom    90
 Full point group                 C1      NOp   1
 Largest Abelian subgroup         C1      NOp   1
 Largest concise Abelian subgroup C1      NOp   1
                         Standard orientation:                         
 ---------------------------------------------------------------------
 Center     Atomic      Atomic             Coordinates (Angstroms)
 Number     Number       Type             X           Y           Z
 ---------------------------------------------------------------------
      1          6           0       -0.786620    3.020953   -0.158842
      2          6           0       -0.032508    1.858380    0.465039
      3          8           0        0.934856    2.050303    1.185252
      4          7           0       -0.520412    0.558548    0.286307
      5          6           0        0.462249   -0.527009    0.275157
      6          6           0        1.850964   -0.141543   -0.284858
      7          8           0        1.996011    0.834305   -1.007966
      8          7           0        2.841783   -1.086673   -0.129342
      9          6           0        2.778734   -2.209397    0.796365
     10          6           0        4.171906   -0.771370   -0.640403
     11          1           0       -0.229050    3.923863    0.087306
     12          1           0       -1.802560    3.117481    0.237940
     13          1           0       -0.851570    2.922187   -1.246591
     14          1           0        0.574250   -0.934526    1.285462
     15          1           0        0.074210   -1.336046   -0.351896
     16          1           0        1.776668   -2.635381    0.848318
     17          1           0        3.445794   -2.996911    0.433422
     18          1           0        3.099165   -1.937519    1.812497
     19          1           0        4.579385   -1.636850   -1.174429
     20          1           0        4.087125    0.074454   -1.319534
     21          1           0        4.859457   -0.509115    0.174698
     22          6           0       -1.725261    0.289262   -0.503210
     23          1           0       -2.247209    1.218766   -0.722335
     24          1           0       -1.475866   -0.172701   -1.468411
     25          6           0       -2.694648   -0.619401    0.254167
     26          1           0       -2.986547   -0.137780    1.202094
     27          1           0       -2.214604   -1.579043    0.513581
     28          8           0       -3.814146   -0.832837   -0.580869
     29          6           0       -4.799943   -1.648850    0.016604
     30          1           0       -5.614609   -1.754035   -0.703488
     31          1           0       -4.409578   -2.649559    0.260417
     32          1           0       -5.197066   -1.200731    0.940744
 ---------------------------------------------------------------------
 Rotational constants (GHZ):      0.9593319      0.3478035      0.2786214
 Standard basis: 6-31G(d,p) (6D, 7F)
 There are   300 symmetry adapted basis functions of A   symmetry.
 Integral buffers will be    131072 words long.
 Raffenetti 2 integral format.
 Two-electron integral symmetry is turned on.
   300 basis functions,   518 primitive gaussians,   300 cartesian basis functions
    55 alpha electrons       55 beta electrons
       nuclear repulsion energy       960.1381051511 Hartrees.
 NAtoms=   32 NActive=   32 NUniq=   32 SFac= 1.00D+00 NAtFMM=   60 NAOKFM=F Big=F
 One-electron integrals computed using PRISM.
 NBasis=   300 RedAO= T  NBF=   300
 NBsUse=   300 1.00D-06 NBFU=   300
 Initial guess read from the read-write file.
 B after Tr=     0.000000    0.000000    0.000000
         Rot=    1.000000    0.000000    0.000000    0.000000 Ang=   0.00 deg.
 Initial guess orbital symmetries:
       Occupied  (A) (A) (A) (A) (A) (A) (A) (A) (A) (A) (A) (A)
                 (A) (A) (A) (A) (A) (A) (A) (A) (A) (A) (A) (A)
                 (A) (A) (A) (A) (A) (A) (A) (A) (A) (A) (A) (A)
                 (A) (A) (A) (A) (A) (A) (A) (A) (A) (A) (A) (A)
                 (A) (A) (A) (A) (A) (A) (A)
       Virtual   (A) (A) (A) (A) (A) (A) (A) (A) (A) (A) (A) (A)
                 (A) (A) (A) (A) (A) (A) (A) (A) (A) (A) (A) (A)
                 (A) (A) (A) (A) (A) (A) (A) (A) (A) (A) (A) (A)
                 (A) (A) (A) (A) (A) (A) (A) (A) (A) (A) (A) (A)
                 (A) (A) (A) (A) (A) (A) (A) (A) (A) (A) (A) (A)
                 (A) (A) (A) (A) (A) (A) (A) (A) (A) (A) (A) (A)
                 (A) (A) (A) (A) (A) (A) (A) (A) (A) (A) (A) (A)
                 (A) (A) (A) (A) (A) (A) (A) (A) (A) (A) (A) (A)
                 (A) (A) (A) (A) (A) (A) (A) (A) (A) (A) (A) (A)
                 (A) (A) (A) (A) (A) (A) (A) (A) (A) (A) (A) (A)
                 (A) (A) (A) (A) (A) (A) (A) (A) (A) (A) (A) (A)
                 (A) (A) (A) (A) (A) (A) (A) (A) (A) (A) (A) (A)
                 (A) (A) (A) (A) (A) (A) (A) (A) (A) (A) (A) (A)
                 (A) (A) (A) (A) (A) (A) (A) (A) (A) (A) (A) (A)
                 (A) (A) (A) (A) (A) (A) (A) (A) (A) (A) (A) (A)
                 (A) (A) (A) (A) (A) (A) (A) (A) (A) (A) (A) (A)
                 (A) (A) (A) (A) (A) (A) (A) (A) (A) (A) (A) (A)
                 (A) (A) (A) (A) (A) (A) (A) (A) (A) (A) (A) (A)
                 (A) (A) (A) (A) (A) (A) (A) (A) (A) (A) (A) (A)
                 (A) (A) (A) (A) (A) (A) (A) (A) (A) (A) (A) (A)
                 (A) (A) (A) (A) (A)
 Harris functional with IExCor=  402 diagonalized for initial guess.
 ExpMin= 1.61D-01 ExpMax= 5.48D+03 ExpMxC= 8.25D+02 IAcc=1 IRadAn=         1 AccDes= 0.00D+00
 HarFok:  IExCor=  402 AccDes= 0.00D+00 IRadAn=         1 IDoV= 1
 ScaDFX=  1.000000  1.000000  1.000000  1.000000
 FoFCou: FMM=F IPFlag=           0 FMFlag=      100000 FMFlg1=           0
         NFxFlg=           0 DoJE=T BraDBF=F KetDBF=T FulRan=T
         Omega=  0.000000  0.000000  1.000000  0.000000  0.000000 ICntrl=     500 IOpCl=  0
         NMat0=    1 NMatS0=    1 NMatT0=    0 NMatD0=    1 NMtDS0=    0 NMtDT0=    0
         I1Cent=           4 NGrid=           0.
 Petite list used in FoFCou.
 Requested convergence on RMS density matrix=1.00D-08 within 128 cycles.
 Requested convergence on MAX density matrix=1.00D-06.
 Requested convergence on             energy=1.00D-06.
 No special actions if energy rises.
 Keep R1 ints in memory in canonical form, NReq=1033484658.
 Integral accuracy reduced to 1.0D-05 until final iterations.
