 Entering Gaussian System, Link 0=/data/opt/apps/g09-C01/g09
 Initial command:
 /data/opt/apps/g09-C01/l1.exe /tmp/g09-tuu61186-1307527c21e64fea8x/Gau-1307669.inp -scrdir=/tmp/g09-tuu61186-1307527c21e64fea8x/
 Entering Link 1 = /data/opt/apps/g09-C01/l1.exe PID=   1307677.
  
 Copyright (c) 1988,1990,1992,1993,1995,1998,2003,2009,2011,
            Gaussian, Inc.  All Rights Reserved.
  
 This is part of the Gaussian(R) 09 program.  It is based on
 the Gaussian(R) 03 system (copyright 2003, Gaussian, Inc.),
 the Gaussian(R) 98 system (copyright 1998, Gaussian, Inc.),
 the Gaussian(R) 94 system (copyright 1995, Gaussian, Inc.),
 the Gaussian 92(TM) system (copyright 1992, Gaussian, Inc.),
 the Gaussian 90(TM) system (copyright 1990, Gaussian, Inc.),
 the Gaussian 88(TM) system (copyright 1988, Gaussian, Inc.),
 the Gaussian 86(TM) system (copyright 1986, Carnegie Mellon
 University), and the Gaussian 82(TM) system (copyright 1983,
 Carnegie Mellon University). Gaussian is a federally registered
 trademark of Gaussian, Inc.
  
 This software contains proprietary and confidential information,
 including trade secrets, belonging to Gaussian, Inc.
  
 This software is provided under written license and may be
 used, copied, transmitted, or stored only in accord with that
 written license.
  
 The following legend is applicable only to US Government
 contracts under FAR:
  
                    RESTRICTED RIGHTS LEGEND
  
 Use, reproduction and disclosure by the US Government is
 subject to restrictions as set forth in subparagraphs (a)
 and (c) of the Commercial Computer Software - Restricted
 Rights clause in FAR 52.227-19.
  
 Gaussian, Inc.
 340 Quinnipiac St., Bldg. 40, Wallingford CT 06492
  
  
 ---------------------------------------------------------------
 Warning -- This program may not be used in any manner that
 competes with the business of Gaussian, Inc. or will provide
 assistance to any competitor of Gaussian, Inc.  The licensee
 of this program is prohibited from giving any competitor of
 Gaussian, Inc. access to this program.  By using this program,
 the user acknowledges that Gaussian, Inc. is engaged in the
 business of creating and licensing software in the field of
 computational chemistry and represents and warrants to the
 licensee that it is not a competitor of Gaussian, Inc. and that
 it will not use this program in any manner prohibited above.
 ---------------------------------------------------------------
  

 Cite this work as:
 Gaussian 09, Revision C.01,
 M. J. Frisch, G. W. Trucks, H. B. Schlegel, G. E. Scuseria, 
 M. A. Robb, J. R. Cheeseman, G. Scalmani, V. Barone, B. Mennucci, 
 G. A. Petersson, H. Nakatsuji, M. Caricato, X. Li, H. P. Hratchian, 
 A. F. Izmaylov, J. Bloino, G. Zheng, J. L. Sonnenberg, M. Hada, 
 M. Ehara, K. Toyota, R. Fukuda, J. Hasegawa, M. Ishida, T. Nakajima, 
 Y. Honda, O. Kitao, H. Nakai, T. Vreven, J. A. Montgomery, Jr., 
 J. E. Peralta, F. Ogliaro, M. Bearpark, J. J. Heyd, E. Brothers, 
 K. N. Kudin, V. N. Staroverov, T. Keith, R. Kobayashi, J. Normand, 
 K. Raghavachari, A. Rendell, J. C. Burant, S. S. Iyengar, J. Tomasi, 
 M. Cossi, N. Rega, J. M. Millam, M. Klene, J. E. Knox, J. B. Cross, 
 V. Bakken, C. Adamo, J. Jaramillo, R. Gomperts, R. E. Stratmann, 
 O. Yazyev, A. J. Austin, R. Cammi, C. Pomelli, J. W. Ochterski, 
 R. L. Martin, K. Morokuma, V. G. Zakrzewski, G. A. Voth, 
 P. Salvador, J. J. Dannenberg, S. Dapprich, A. D. Daniels, 
 O. Farkas, J. B. Foresman, J. V. Ortiz, J. Cioslowski, 
 and D. J. Fox, Gaussian, Inc., Wallingford CT, 2010.
 
 ******************************************
 Gaussian 09:  EM64L-G09RevC.01 23-Sep-2011
                24-Apr-2026 
 ******************************************
 %nprocshared=8
 Will use up to    8 processors via shared memory.
 %mem=14GB
 -----------------------------------
 # opt=modredundant b3lyp/6-31g(d,p)
 -----------------------------------
 1/14=-1,18=120,19=15,26=3,38=1/1,3;
 2/9=110,12=2,17=6,18=5,40=1/2;
 3/5=1,6=6,7=101,11=2,16=1,25=1,30=1,71=1,74=-5/1,2,3;
 4//1;
 5/5=2,38=5/2;
 6/7=2,8=2,9=2,10=2,28=1/1;
 7//1,2,3,16;
 1/14=-1,18=20,19=15/3(2);
 2/9=110/2;
 99//99;
 2/9=110/2;
 3/5=1,6=6,7=101,11=2,16=1,25=1,30=1,71=1,74=-5/1,2,3;
 4/5=5,16=3/1;
 5/5=2,38=5/2;
 7//1,2,3,16;
 1/14=-1,18=20,19=15/3(-5);
 2/9=110/2;
 6/7=2,8=2,9=2,10=2,19=2,28=1/1;
 99/9=1/99;
 ---------------
 QM dihedral opt
 ---------------
 Charge =  0 Multiplicity = 1
 Symbolic Z-Matrix:
 C                     0.69393   2.82313  -0.05956 
 C                    -0.11268   1.55906  -0.30866 
 O                    -1.24297   1.62038  -0.78907 
 N                     0.45942   0.34265  -0.02005 
 C                    -0.41824  -0.83327  -0.04914 
 C                    -1.79277  -0.55013   0.58915 
 O                    -1.82068  -0.14711   1.74786 
 N                    -2.91809  -0.89452  -0.1125 
 C                    -2.93113  -1.01419  -1.57048 
 C                    -4.20083  -0.60864   0.52442 
 H                     0.11955   3.65481  -0.46594 
 H                     1.67685   2.79627  -0.53929 
 H                     0.8445    2.98988   1.01216 
 H                    -0.49781  -1.21682  -1.06924 
 H                     0.04553  -1.61055   0.56304 
 H                    -2.32572  -1.85822  -1.9148 
 H                    -3.95768  -1.20446  -1.8892 
 H                    -2.57542  -0.09378  -2.04492 
 H                    -4.93341  -1.36549   0.22838 
 H                    -4.06458  -0.62647   1.60413 
 H                    -4.57749   0.38257   0.23867 
 C                     1.75786   0.18444   0.63072 
 H                     2.14115   1.15253   0.95091 
 H                     1.64469  -0.42457   1.53423 
 C                     2.78863  -0.46561  -0.29386 
 H                     2.92428   0.15443  -1.19652 
 H                     2.43572  -1.45533  -0.63169 
 O                     3.99288  -0.58199   0.43354 
 C                     5.03345  -1.18114  -0.31099 
 H                     5.91241  -1.2231    0.33609 
 H                     4.77375  -2.20401  -0.62553 
 H                     5.28114  -0.59677  -1.21085 
 
 The following ModRedundant input section has been read:
 D       2       4       5       6 F                                           
 D       4       5       6       8 S  36 10.000                                

 GradGradGradGradGradGradGradGradGradGradGradGradGradGradGradGradGradGrad
 Berny optimization.
 Initialization pass.
                           ----------------------------
                           !    Initial Parameters    !
                           ! (Angstroms and Degrees)  !
 --------------------------                            --------------------------
 ! Name  Definition              Value          Derivative Info.                !
 --------------------------------------------------------------------------------
 ! R1    R(1,2)                  1.52           estimate D2E/DX2                !
 ! R2    R(1,11)                 1.0894         estimate D2E/DX2                !
 ! R3    R(1,12)                 1.0941         estimate D2E/DX2                !
 ! R4    R(1,13)                 1.095          estimate D2E/DX2                !
 ! R5    R(2,3)                  1.2297         estimate D2E/DX2                !
 ! R6    R(2,4)                  1.3749         estimate D2E/DX2                !
 ! R7    R(4,5)                  1.4676         estimate D2E/DX2                !
 ! R8    R(4,22)                 1.461          estimate D2E/DX2                !
 ! R9    R(5,6)                  1.5417         estimate D2E/DX2                !
 ! R10   R(5,14)                 1.0927         estimate D2E/DX2                !
 ! R11   R(5,15)                 1.0927         estimate D2E/DX2                !
 ! R12   R(6,7)                  1.2271         estimate D2E/DX2                !
 ! R13   R(6,8)                  1.3701         estimate D2E/DX2                !
 ! R14   R(8,9)                  1.4629         estimate D2E/DX2                !
 ! R15   R(8,10)                 1.4604         estimate D2E/DX2                !
 ! R16   R(9,16)                 1.0943         estimate D2E/DX2                !
 ! R17   R(9,17)                 1.0916         estimate D2E/DX2                !
 ! R18   R(9,18)                 1.0949         estimate D2E/DX2                !
 ! R19   R(10,19)                1.0941         estimate D2E/DX2                !
 ! R20   R(10,20)                1.0884         estimate D2E/DX2                !
 ! R21   R(10,21)                1.0982         estimate D2E/DX2                !
 ! R22   R(22,23)                1.0893         estimate D2E/DX2                !
 ! R23   R(22,24)                1.0955         estimate D2E/DX2                !
 ! R24   R(22,25)                1.5297         estimate D2E/DX2                !
 ! R25   R(25,26)                1.1035         estimate D2E/DX2                !
 ! R26   R(25,27)                1.1037         estimate D2E/DX2                !
 ! R27   R(25,28)                1.4117         estimate D2E/DX2                !
 ! R28   R(28,29)                1.4128         estimate D2E/DX2                !
 ! R29   R(29,30)                1.0923         estimate D2E/DX2                !
 ! R30   R(29,31)                1.1012         estimate D2E/DX2                !
 ! R31   R(29,32)                1.1012         estimate D2E/DX2                !
 ! A1    A(2,1,11)             107.0956         estimate D2E/DX2                !
 ! A2    A(2,1,12)             112.6109         estimate D2E/DX2                !
 ! A3    A(2,1,13)             111.1            estimate D2E/DX2                !
 ! A4    A(11,1,12)            109.1995         estimate D2E/DX2                !
 ! A5    A(11,1,13)            108.7433         estimate D2E/DX2                !
 ! A6    A(12,1,13)            108.0203         estimate D2E/DX2                !
 ! A7    A(1,2,3)              120.685          estimate D2E/DX2                !
 ! A8    A(1,2,4)              118.7208         estimate D2E/DX2                !
 ! A9    A(3,2,4)              120.5713         estimate D2E/DX2                !
 ! A10   A(2,4,5)              117.1224         estimate D2E/DX2                !
 ! A11   A(2,4,22)             123.996          estimate D2E/DX2                !
 ! A12   A(5,4,22)             116.9712         estimate D2E/DX2                !
 ! A13   A(4,5,6)              112.1981         estimate D2E/DX2                !
 ! A14   A(4,5,14)             110.0773         estimate D2E/DX2                !
 ! A15   A(4,5,15)             107.7605         estimate D2E/DX2                !
 ! A16   A(6,5,14)             112.7077         estimate D2E/DX2                !
 ! A17   A(6,5,15)             106.0861         estimate D2E/DX2                !
 ! A18   A(14,5,15)            107.7123         estimate D2E/DX2                !
 ! A19   A(5,6,7)              118.1328         estimate D2E/DX2                !
 ! A20   A(5,6,8)              118.2993         estimate D2E/DX2                !
 ! A21   A(7,6,8)              123.1912         estimate D2E/DX2                !
 ! A22   A(6,8,9)              122.5645         estimate D2E/DX2                !
 ! A23   A(6,8,10)             116.6704         estimate D2E/DX2                !
 ! A24   A(9,8,10)             116.2841         estimate D2E/DX2                !
 ! A25   A(8,9,16)             111.8232         estimate D2E/DX2                !
 ! A26   A(8,9,17)             108.2777         estimate D2E/DX2                !
 ! A27   A(8,9,18)             111.112          estimate D2E/DX2                !
 ! A28   A(16,9,17)            107.0955         estimate D2E/DX2                !
 ! A29   A(16,9,18)            109.409          estimate D2E/DX2                !
 ! A30   A(17,9,18)            108.9981         estimate D2E/DX2                !
 ! A31   A(8,10,19)            109.5534         estimate D2E/DX2                !
 ! A32   A(8,10,20)            108.631          estimate D2E/DX2                !
 ! A33   A(8,10,21)            111.3744         estimate D2E/DX2                !
 ! A34   A(19,10,20)           109.9313         estimate D2E/DX2                !
 ! A35   A(19,10,21)           108.9234         estimate D2E/DX2                !
 ! A36   A(20,10,21)           108.4109         estimate D2E/DX2                !
 ! A37   A(4,22,23)            110.3285         estimate D2E/DX2                !
 ! A38   A(4,22,24)            109.6194         estimate D2E/DX2                !
 ! A39   A(4,22,25)            112.0656         estimate D2E/DX2                !
 ! A40   A(23,22,24)           106.7371         estimate D2E/DX2                !
 ! A41   A(23,22,25)           108.5561         estimate D2E/DX2                !
 ! A42   A(24,22,25)           109.3828         estimate D2E/DX2                !
 ! A43   A(22,25,26)           109.7845         estimate D2E/DX2                !
 ! A44   A(22,25,27)           110.5243         estimate D2E/DX2                !
 ! A45   A(22,25,28)           107.3628         estimate D2E/DX2                !
 ! A46   A(26,25,27)           107.0249         estimate D2E/DX2                !
 ! A47   A(26,25,28)           111.2823         estimate D2E/DX2                !
 ! A48   A(27,25,28)           110.8882         estimate D2E/DX2                !
 ! A49   A(25,28,29)           113.061          estimate D2E/DX2                !
 ! A50   A(28,29,30)           107.2643         estimate D2E/DX2                !
 ! A51   A(28,29,31)           111.7611         estimate D2E/DX2                !
 ! A52   A(28,29,32)           111.7932         estimate D2E/DX2                !
 ! A53   A(30,29,31)           108.863          estimate D2E/DX2                !
 ! A54   A(30,29,32)           108.8746         estimate D2E/DX2                !
 ! A55   A(31,29,32)           108.2137         estimate D2E/DX2                !
 ! D1    D(11,1,2,3)            -5.3143         estimate D2E/DX2                !
 ! D2    D(11,1,2,4)           172.959          estimate D2E/DX2                !
 ! D3    D(12,1,2,3)          -125.3673         estimate D2E/DX2                !
 ! D4    D(12,1,2,4)            52.906          estimate D2E/DX2                !
 ! D5    D(13,1,2,3)           113.307          estimate D2E/DX2                !
 ! D6    D(13,1,2,4)           -68.4197         estimate D2E/DX2                !
 ! D7    D(1,2,4,5)            169.6433         estimate D2E/DX2                !
 ! D8    D(1,2,4,22)             5.8874         estimate D2E/DX2                !
 ! D9    D(3,2,4,5)            -12.0814         estimate D2E/DX2                !
 ! D10   D(3,2,4,22)          -175.8372         estimate D2E/DX2                !
 ! D11   D(2,4,5,6)            -41.3302         Frozen                          !
 ! D12   D(2,4,5,14)            85.0435         estimate D2E/DX2                !
 ! D13   D(2,4,5,15)          -157.7497         estimate D2E/DX2                !
 ! D14   D(22,4,5,6)           123.5866         estimate D2E/DX2                !
 ! D15   D(22,4,5,14)         -110.0397         estimate D2E/DX2                !
 ! D16   D(22,4,5,15)            7.1671         estimate D2E/DX2                !
 ! D17   D(2,4,22,23)            6.5214         estimate D2E/DX2                !
 ! D18   D(2,4,22,24)          123.786          estimate D2E/DX2                !
 ! D19   D(2,4,22,25)         -114.5676         estimate D2E/DX2                !
 ! D20   D(5,4,22,23)         -157.2569         estimate D2E/DX2                !
 ! D21   D(5,4,22,24)          -39.9923         estimate D2E/DX2                !
 ! D22   D(5,4,22,25)           81.6541         estimate D2E/DX2                !
 ! D23   D(4,5,6,7)            -56.856          estimate D2E/DX2                !
 ! D24   D(4,5,6,8)            129.9616         Scan                            !
 ! D25   D(14,5,6,7)           178.2068         estimate D2E/DX2                !
 ! D26   D(14,5,6,8)             5.0244         estimate D2E/DX2                !
 ! D27   D(15,5,6,7)            60.5668         estimate D2E/DX2                !
 ! D28   D(15,5,6,8)          -112.6156         estimate D2E/DX2                !
 ! D29   D(5,6,8,9)            -24.5733         estimate D2E/DX2                !
 ! D30   D(5,6,8,10)          -179.9111         estimate D2E/DX2                !
 ! D31   D(7,6,8,9)            162.6128         estimate D2E/DX2                !
 ! D32   D(7,6,8,10)             7.275          estimate D2E/DX2                !
 ! D33   D(6,8,9,16)            67.4944         estimate D2E/DX2                !
 ! D34   D(6,8,9,17)          -174.7473         estimate D2E/DX2                !
 ! D35   D(6,8,9,18)           -55.0757         estimate D2E/DX2                !
 ! D36   D(10,8,9,16)         -137.0796         estimate D2E/DX2                !
 ! D37   D(10,8,9,17)          -19.3213         estimate D2E/DX2                !
 ! D38   D(10,8,9,18)          100.3503         estimate D2E/DX2                !
 ! D39   D(6,8,10,19)         -147.7451         estimate D2E/DX2                !
 ! D40   D(6,8,10,20)          -27.6457         estimate D2E/DX2                !
 ! D41   D(6,8,10,21)           91.6859         estimate D2E/DX2                !
 ! D42   D(9,8,10,19)           55.3475         estimate D2E/DX2                !
 ! D43   D(9,8,10,20)          175.447          estimate D2E/DX2                !
 ! D44   D(9,8,10,21)          -65.2215         estimate D2E/DX2                !
 ! D45   D(4,22,25,26)          59.4596         estimate D2E/DX2                !
 ! D46   D(4,22,25,27)         -58.3743         estimate D2E/DX2                !
 ! D47   D(4,22,25,28)        -179.4346         estimate D2E/DX2                !
 ! D48   D(23,22,25,26)        -62.6465         estimate D2E/DX2                !
 ! D49   D(23,22,25,27)        179.5196         estimate D2E/DX2                !
 ! D50   D(23,22,25,28)         58.4593         estimate D2E/DX2                !
 ! D51   D(24,22,25,26)       -178.7583         estimate D2E/DX2                !
 ! D52   D(24,22,25,27)         63.4078         estimate D2E/DX2                !
 ! D53   D(24,22,25,28)        -57.6525         estimate D2E/DX2                !
 ! D54   D(22,25,28,29)        179.5978         estimate D2E/DX2                !
 ! D55   D(26,25,28,29)        -60.2438         estimate D2E/DX2                !
 ! D56   D(27,25,28,29)         58.767          estimate D2E/DX2                !
 ! D57   D(25,28,29,30)        179.9604         estimate D2E/DX2                !
 ! D58   D(25,28,29,31)        -60.7911         estimate D2E/DX2                !
 ! D59   D(25,28,29,32)         60.6792         estimate D2E/DX2                !
 --------------------------------------------------------------------------------
 Trust Radius=3.00D-01 FncErr=1.00D-07 GrdErr=1.00D-06
 Number of optimizations in scan=  37
 Number of steps in this run=    155 maximum allowed number of steps=    192.
 GradGradGradGradGradGradGradGradGradGradGradGradGradGradGradGradGradGrad

                          Input orientation:                          
 ---------------------------------------------------------------------
 Center     Atomic      Atomic             Coordinates (Angstroms)
 Number     Number       Type             X           Y           Z
 ---------------------------------------------------------------------
      1          6           0        0.693928    2.823127   -0.059563
      2          6           0       -0.112681    1.559064   -0.308662
      3          8           0       -1.242971    1.620378   -0.789068
      4          7           0        0.459424    0.342652   -0.020050
      5          6           0       -0.418236   -0.833270   -0.049138
      6          6           0       -1.792774   -0.550133    0.589151
      7          8           0       -1.820675   -0.147106    1.747859
      8          7           0       -2.918091   -0.894524   -0.112496
      9          6           0       -2.931133   -1.014191   -1.570483
     10          6           0       -4.200830   -0.608642    0.524419
     11          1           0        0.119553    3.654813   -0.465935
     12          1           0        1.676854    2.796272   -0.539291
     13          1           0        0.844495    2.989884    1.012162
     14          1           0       -0.497810   -1.216819   -1.069242
     15          1           0        0.045527   -1.610548    0.563044
     16          1           0       -2.325724   -1.858219   -1.914800
     17          1           0       -3.957676   -1.204464   -1.889197
     18          1           0       -2.575421   -0.093777   -2.044923
     19          1           0       -4.933410   -1.365488    0.228380
     20          1           0       -4.064579   -0.626465    1.604132
     21          1           0       -4.577488    0.382574    0.238672
     22          6           0        1.757862    0.184443    0.630716
     23          1           0        2.141146    1.152527    0.950911
     24          1           0        1.644694   -0.424572    1.534232
     25          6           0        2.788634   -0.465610   -0.293862
     26          1           0        2.924278    0.154425   -1.196522
     27          1           0        2.435720   -1.455334   -0.631685
     28          8           0        3.992882   -0.581991    0.433540
     29          6           0        5.033451   -1.181135   -0.310990
     30          1           0        5.912406   -1.223098    0.336091
     31          1           0        4.773752   -2.204006   -0.625530
     32          1           0        5.281142   -0.596767   -1.210849
 ---------------------------------------------------------------------
                    Distance matrix (angstroms):
                    1          2          3          4          5
     1  C    0.000000
     2  C    1.520041   0.000000
     3  O    2.393817   1.229677   0.000000
     4  N    2.491849   1.374867   2.263210   0.000000
     5  C    3.821813   2.425691   2.692224   1.467626   0.000000
     6  C    4.240684   2.842093   2.629237   2.498117   1.541731
     7  O    4.290954   3.171362   3.145432   2.926468   2.380516
     8  N    5.183668   3.732144   3.096532   3.598160   2.501408
     9  C    5.490806   4.019640   3.225129   3.967460   2.943106
    10  C    6.006391   4.701695   3.929721   4.787418   3.832420
    11  H    1.089379   2.114434   2.469780   3.359276   4.539364
    12  H    1.094077   2.187763   3.157609   2.787830   4.219387
    13  H    1.095022   2.169794   3.078553   2.867330   4.163815
    14  H    4.331380   2.903848   2.946769   2.109277   1.092728
    15  H    4.523885   3.291100   3.731932   2.079976   1.092705
    16  H    5.871559   4.376650   3.813170   4.023799   2.858273
    17  H    6.419227   4.991910   4.069354   5.039648   4.006400
    18  H    4.810263   3.436797   2.508171   3.674352   3.030422
    19  H    7.020993   5.663996   4.854888   5.662342   4.554895
    20  H    6.108269   4.904367   4.328647   4.903443   4.008976
    21  H    5.816620   4.649538   3.702352   5.043710   4.342866
    22  C    2.927643   2.504186   3.617001   1.460982   2.496667
    23  H    2.430309   2.613720   3.833883   2.104008   3.390269
    24  H    3.740546   3.227915   4.232984   2.099831   2.632447
    25  C    3.906210   3.537959   4.566225   2.480621   3.237141
    26  H    3.659113   3.461853   4.436327   2.737704   3.669391
    27  H    4.654717   3.960465   4.797660   2.740912   2.978488
    28  O    4.766663   4.689417   5.810280   3.680494   4.444556
    29  C    5.910058   5.830212   6.889884   4.829937   5.469046
    30  H    6.615209   6.667669   7.781437   5.684490   6.354321
    31  H    6.499027   6.175624   7.131172   5.046335   5.400730
    32  H    5.836409   5.878339   6.903454   5.054649   5.821376
                    6          7          8          9         10
     6  C    0.000000
     7  O    1.227116   0.000000
     8  N    1.370128   2.285580   0.000000
     9  C    2.485001   3.605045   1.462948   0.000000
    10  C    2.409636   2.715688   1.460414   2.482985   0.000000
    11  H    4.738330   4.808322   5.481666   5.685623   6.150086
    12  H    4.950770   5.111481   5.909116   6.067663   6.875470
    13  H    4.434619   4.181517   5.523634   6.079312   6.216316
    14  H    2.207186   3.290945   2.622403   2.492662   4.077008
    15  H    2.122384   2.651068   3.122831   3.710537   4.363124
    16  H    2.874873   4.074071   2.127888   1.094284   3.320731
    17  H    3.355169   4.348903   2.081698   1.091592   2.497933
    18  H    2.785524   3.867516   2.119644   1.094891   3.083595
    19  H    3.264744   3.671837   2.097502   2.714485   1.094134
    20  H    2.489400   2.299032   2.081610   3.393112   1.088422
    21  H    2.957602   3.187197   2.123181   2.816821   1.098195
    22  C    3.626065   3.763490   4.856034   5.316829   6.012179
    23  H    4.301819   4.245020   5.560318   6.064661   6.595777
    24  H    3.567230   3.483017   4.873559   5.561034   5.934960
    25  C    4.666493   5.051317   5.725694   5.886122   7.038654
    26  H    5.092702   5.592395   6.033961   5.982587   7.369605
    27  H    4.493327   5.048821   5.408083   5.466174   6.789496
    28  O    5.787836   5.976120   6.939552   7.221142   8.194259
    29  C    6.914171   7.230983   7.959181   8.065283   9.289650
    30  H    7.738651   7.934191   8.847987   9.049135  10.133635
    31  H    6.879681   7.304128   7.819360   7.853270   9.187529
    32  H    7.299484   7.706617   8.277829   8.230738   9.639455
                   11         12         13         14         15
    11  H    0.000000
    12  H    1.779792   0.000000
    13  H    1.775512   1.771246   0.000000
    14  H    4.947516   4.595096   4.881637   0.000000
    15  H    5.365473   4.826638   4.690845   1.764822   0.000000
    16  H    6.202589   6.291021   6.490108   2.113677   3.438587
    17  H    6.500926   7.041027   7.005090   3.555721   4.712115
    18  H    4.879346   5.357346   5.527256   2.555317   3.996430
    19  H    7.156670   7.848895   7.277896   4.623902   4.996185
    20  H    6.334152   7.019505   6.125962   4.496364   4.352615
    21  H    5.767687   6.748923   6.065827   4.573015   5.044801
    22  C    3.991261   2.863063   2.974935   3.153006   2.481665
    23  H    3.515071   2.266752   2.249652   4.081532   3.489505
    24  H    4.792505   3.830714   3.545615   3.463532   2.215193
    25  C    4.912381   3.454875   4.174424   3.459226   3.093510
    26  H    4.544552   2.994558   4.152543   3.688793   3.807678
    27  H    5.612994   4.319788   4.999419   2.975558   2.676657
    28  O    5.810528   4.209875   4.796398   4.777832   4.081215
    29  C    6.896143   5.209475   6.057680   5.583106   5.082098
    30  H    7.615406   5.904365   6.624954   6.562459   5.884037
    31  H    7.484170   5.882261   6.715474   5.381523   4.911315
    32  H    6.728509   4.995458   6.122882   5.813846   5.620152
                   16         17         18         19         20
    16  H    0.000000
    17  H    1.758215   0.000000
    18  H    1.786767   1.780030   0.000000
    19  H    3.411163   2.337117   3.513583   0.000000
    20  H    4.113845   3.542437   3.977053   1.787097   0.000000
    21  H    3.837843   2.725928   3.074083   1.783958   1.773617
    22  C    5.227599   6.398937   5.100372   6.880209   5.958685
    23  H    6.101624   7.128622   5.724884   7.543991   6.488646
    24  H    5.451182   6.611705   5.543388   6.772151   5.713269
    25  C    5.542874   6.971635   5.654871   7.791821   7.113001
    26  H    5.668261   7.048948   5.570285   8.129191   7.569516
    27  H    4.947732   6.520720   5.381692   7.419694   6.923856
    28  O    6.860630   8.306260   7.037310   8.962960   8.142171
    29  C    7.562282   9.128617   7.879328   9.983147   9.313941
    30  H    8.563683  10.117844   8.887508  10.847285  10.074926
    31  H    7.223873   8.878839   7.776766   9.780658   9.250736
    32  H    7.742817   9.283599   7.916708  10.344051   9.760507
                   21         22         23         24         25
    21  H    0.000000
    22  C    6.350560   0.000000
    23  H    6.800011   1.089320   0.000000
    24  H    6.406677   1.095467   1.753274   0.000000
    25  C    7.433893   1.529675   2.141744   2.156898   0.000000
    26  H    7.641225   2.168000   2.494188   3.070764   1.103466
    27  H    7.302090   2.177617   3.064690   2.525745   1.103733
    28  O    8.626680   2.370994   2.589431   2.598132   1.411691
    29  C    9.752818   3.671661   3.924768   3.932036   2.356156
    30  H   10.612519   4.396386   4.499333   4.504059   3.275451
    31  H    9.740787   4.047028   4.547757   4.197852   2.659458
    32  H   10.012632   4.051562   4.194378   4.559482   2.659072
                   26         27         28         29         30
    26  H    0.000000
    27  H    1.774557   0.000000
    28  O    2.083585   2.078987   0.000000
    29  C    2.648867   2.631774   1.412828   0.000000
    30  H    3.629791   3.616334   2.026101   1.092262   0.000000
    31  H    3.051030   2.454983   2.088617   1.101201   1.784216
    32  H    2.473722   3.028035   2.088982   1.101173   1.784323
                   31         32
    31  H    0.000000
    32  H    1.784169   0.000000
 Stoichiometry    C9H18N2O3
 Framework group  C1[X(C9H18N2O3)]
 Deg. of freedom    90
 Full point group                 C1      NOp   1
 Largest Abelian subgroup         C1      NOp   1
 Largest concise Abelian subgroup C1      NOp   1
                         Standard orientation:                         
 ---------------------------------------------------------------------
 Center     Atomic      Atomic             Coordinates (Angstroms)
 Number     Number       Type             X           Y           Z
 ---------------------------------------------------------------------
      1          6           0        0.693928    2.823127   -0.059563
      2          6           0       -0.112681    1.559064   -0.308662
      3          8           0       -1.242971    1.620378   -0.789068
      4          7           0        0.459424    0.342652   -0.020050
      5          6           0       -0.418236   -0.833270   -0.049138
      6          6           0       -1.792774   -0.550133    0.589151
      7          8           0       -1.820675   -0.147106    1.747859
      8          7           0       -2.918091   -0.894524   -0.112496
      9          6           0       -2.931133   -1.014191   -1.570483
     10          6           0       -4.200830   -0.608642    0.524419
     11          1           0        0.119553    3.654813   -0.465935
     12          1           0        1.676854    2.796272   -0.539291
     13          1           0        0.844495    2.989884    1.012162
     14          1           0       -0.497810   -1.216819   -1.069242
     15          1           0        0.045527   -1.610548    0.563044
     16          1           0       -2.325724   -1.858219   -1.914800
     17          1           0       -3.957676   -1.204464   -1.889197
     18          1           0       -2.575421   -0.093777   -2.044923
     19          1           0       -4.933410   -1.365488    0.228380
     20          1           0       -4.064579   -0.626465    1.604132
     21          1           0       -4.577488    0.382574    0.238672
     22          6           0        1.757862    0.184443    0.630716
     23          1           0        2.141146    1.152527    0.950911
     24          1           0        1.644694   -0.424572    1.534232
     25          6           0        2.788634   -0.465610   -0.293862
     26          1           0        2.924278    0.154425   -1.196522
     27          1           0        2.435720   -1.455334   -0.631685
     28          8           0        3.992882   -0.581991    0.433540
     29          6           0        5.033451   -1.181135   -0.310990
     30          1           0        5.912406   -1.223098    0.336091
     31          1           0        4.773752   -2.204006   -0.625530
     32          1           0        5.281142   -0.596767   -1.210849
 ---------------------------------------------------------------------
 Rotational constants (GHZ):      1.2101300      0.3190375      0.2905225
 Standard basis: 6-31G(d,p) (6D, 7F)
 There are   300 symmetry adapted basis functions of A   symmetry.
 Integral buffers will be    131072 words long.
 Raffenetti 2 integral format.
 Two-electron integral symmetry is turned on.
   300 basis functions,   518 primitive gaussians,   300 cartesian basis functions
    55 alpha electrons       55 beta electrons
       nuclear repulsion energy       967.8168971851 Hartrees.
 NAtoms=   32 NActive=   32 NUniq=   32 SFac= 1.00D+00 NAtFMM=   60 NAOKFM=F Big=F
 One-electron integrals computed using PRISM.
 NBasis=   300 RedAO= T  NBF=   300
 NBsUse=   300 1.00D-06 NBFU=   300
 Harris functional with IExCor=  402 diagonalized for initial guess.
 ExpMin= 1.61D-01 ExpMax= 5.48D+03 ExpMxC= 8.25D+02 IAcc=1 IRadAn=         1 AccDes= 0.00D+00
 HarFok:  IExCor=  402 AccDes= 0.00D+00 IRadAn=         1 IDoV= 1
 ScaDFX=  1.000000  1.000000  1.000000  1.000000
 FoFCou: FMM=F IPFlag=           0 FMFlag=      100000 FMFlg1=           0
         NFxFlg=           0 DoJE=T BraDBF=F KetDBF=T FulRan=T
         Omega=  0.000000  0.000000  1.000000  0.000000  0.000000 ICntrl=     500 IOpCl=  0
         NMat0=    1 NMatS0=    1 NMatT0=    0 NMatD0=    1 NMtDS0=    0 NMtDT0=    0
         I1Cent=           4 NGrid=           0.
 Petite list used in FoFCou.
 Initial guess orbital symmetries:
       Occupied  (A) (A) (A) (A) (A) (A) (A) (A) (A) (A) (A) (A)
                 (A) (A) (A) (A) (A) (A) (A) (A) (A) (A) (A) (A)
                 (A) (A) (A) (A) (A) (A) (A) (A) (A) (A) (A) (A)
                 (A) (A) (A) (A) (A) (A) (A) (A) (A) (A) (A) (A)
                 (A) (A) (A) (A) (A) (A) (A)
       Virtual   (A) (A) (A) (A) (A) (A) (A) (A) (A) (A) (A) (A)
                 (A) (A) (A) (A) (A) (A) (A) (A) (A) (A) (A) (A)
                 (A) (A) (A) (A) (A) (A) (A) (A) (A) (A) (A) (A)
                 (A) (A) (A) (A) (A) (A) (A) (A) (A) (A) (A) (A)
                 (A) (A) (A) (A) (A) (A) (A) (A) (A) (A) (A) (A)
                 (A) (A) (A) (A) (A) (A) (A) (A) (A) (A) (A) (A)
                 (A) (A) (A) (A) (A) (A) (A) (A) (A) (A) (A) (A)
                 (A) (A) (A) (A) (A) (A) (A) (A) (A) (A) (A) (A)
                 (A) (A) (A) (A) (A) (A) (A) (A) (A) (A) (A) (A)
                 (A) (A) (A) (A) (A) (A) (A) (A) (A) (A) (A) (A)
                 (A) (A) (A) (A) (A) (A) (A) (A) (A) (A) (A) (A)
                 (A) (A) (A) (A) (A) (A) (A) (A) (A) (A) (A) (A)
                 (A) (A) (A) (A) (A) (A) (A) (A) (A) (A) (A) (A)
                 (A) (A) (A) (A) (A) (A) (A) (A) (A) (A) (A) (A)
                 (A) (A) (A) (A) (A) (A) (A) (A) (A) (A) (A) (A)
                 (A) (A) (A) (A) (A) (A) (A) (A) (A) (A) (A) (A)
                 (A) (A) (A) (A) (A) (A) (A) (A) (A) (A) (A) (A)
                 (A) (A) (A) (A) (A) (A) (A) (A) (A) (A) (A) (A)
                 (A) (A) (A) (A) (A) (A) (A) (A) (A) (A) (A) (A)
                 (A) (A) (A) (A) (A) (A) (A) (A) (A) (A) (A) (A)
                 (A) (A) (A) (A) (A)
 The electronic state of the initial guess is 1-A.
 Requested convergence on RMS density matrix=1.00D-08 within 128 cycles.
 Requested convergence on MAX density matrix=1.00D-06.
 Requested convergence on             energy=1.00D-06.
 No special actions if energy rises.
 Keep R1 ints in memory in canonical form, NReq=1033484825.
 Integral accuracy reduced to 1.0D-05 until final iterations.
 Initial convergence to 1.0D-05 achieved.  Increase integral accuracy.
 SCF Done:  E(RB3LYP) =  -688.991768588     A.U. after   14 cycles
             Convg  =    0.7258D-08             -V/T =  2.0093

 **********************************************************************

            Population analysis using the SCF density.

 **********************************************************************

 Orbital symmetries:
       Occupied  (A) (A) (A) (A) (A) (A) (A) (A) (A) (A) (A) (A)
                 (A) (A) (A) (A) (A) (A) (A) (A) (A) (A) (A) (A)
                 (A) (A) (A) (A) (A) (A) (A) (A) (A) (A) (A) (A)
                 (A) (A) (A) (A) (A) (A) (A) (A) (A) (A) (A) (A)
                 (A) (A) (A) (A) (A) (A) (A)
       Virtual   (A) (A) (A) (A) (A) (A) (A) (A) (A) (A) (A) (A)
                 (A) (A) (A) (A) (A) (A) (A) (A) (A) (A) (A) (A)
                 (A) (A) (A) (A) (A) (A) (A) (A) (A) (A) (A) (A)
                 (A) (A) (A) (A) (A) (A) (A) (A) (A) (A) (A) (A)
                 (A) (A) (A) (A) (A) (A) (A) (A) (A) (A) (A) (A)
                 (A) (A) (A) (A) (A) (A) (A) (A) (A) (A) (A) (A)
                 (A) (A) (A) (A) (A) (A) (A) (A) (A) (A) (A) (A)
                 (A) (A) (A) (A) (A) (A) (A) (A) (A) (A) (A) (A)
                 (A) (A) (A) (A) (A) (A) (A) (A) (A) (A) (A) (A)
                 (A) (A) (A) (A) (A) (A) (A) (A) (A) (A) (A) (A)
                 (A) (A) (A) (A) (A) (A) (A) (A) (A) (A) (A) (A)
                 (A) (A) (A) (A) (A) (A) (A) (A) (A) (A) (A) (A)
                 (A) (A) (A) (A) (A) (A) (A) (A) (A) (A) (A) (A)
                 (A) (A) (A) (A) (A) (A) (A) (A) (A) (A) (A) (A)
                 (A) (A) (A) (A) (A) (A) (A) (A) (A) (A) (A) (A)
                 (A) (A) (A) (A) (A) (A) (A) (A) (A) (A) (A) (A)
                 (A) (A) (A) (A) (A) (A) (A) (A) (A) (A) (A) (A)
                 (A) (A) (A) (A) (A) (A) (A) (A) (A) (A) (A) (A)
                 (A) (A) (A) (A) (A) (A) (A) (A) (A) (A) (A) (A)
                 (A) (A) (A) (A) (A) (A) (A) (A) (A) (A) (A) (A)
                 (A) (A) (A) (A) (A)
 The electronic state is 1-A.
 Alpha  occ. eigenvalues --  -19.15860 -19.11085 -19.09524 -14.36678 -14.35293
 Alpha  occ. eigenvalues --  -10.28569 -10.27354 -10.24197 -10.23577 -10.22745
 Alpha  occ. eigenvalues --  -10.22693 -10.21224 -10.20179 -10.19021  -1.04270
 Alpha  occ. eigenvalues --   -1.03413  -1.01438  -0.93271  -0.91839  -0.77250
 Alpha  occ. eigenvalues --   -0.75571  -0.71933  -0.70623  -0.68308  -0.66829
 Alpha  occ. eigenvalues --   -0.62551  -0.56393  -0.52393  -0.50924  -0.49934
 Alpha  occ. eigenvalues --   -0.49652  -0.48157  -0.46885  -0.45943  -0.45702
 Alpha  occ. eigenvalues --   -0.45270  -0.43734  -0.42882  -0.41388  -0.40169
 Alpha  occ. eigenvalues --   -0.39848  -0.39492  -0.39046  -0.38369  -0.37932
 Alpha  occ. eigenvalues --   -0.36900  -0.36200  -0.35956  -0.33421  -0.32873
 Alpha  occ. eigenvalues --   -0.26556  -0.25155  -0.24798  -0.23488  -0.22366
 Alpha virt. eigenvalues --    0.02180   0.03295   0.07736   0.08870   0.09984
 Alpha virt. eigenvalues --    0.11275   0.12539   0.12734   0.14131   0.14483
 Alpha virt. eigenvalues --    0.15046   0.15404   0.15507   0.15920   0.16881
 Alpha virt. eigenvalues --    0.17241   0.17586   0.18222   0.18895   0.19005
 Alpha virt. eigenvalues --    0.19766   0.20543   0.21383   0.21567   0.22893
 Alpha virt. eigenvalues --    0.24207   0.26065   0.28026   0.28717   0.33752
 Alpha virt. eigenvalues --    0.36206   0.38465   0.40413   0.48415   0.49196
 Alpha virt. eigenvalues --    0.50319   0.51118   0.51511   0.53155   0.53396
 Alpha virt. eigenvalues --    0.54967   0.55267   0.55688   0.57098   0.57766
 Alpha virt. eigenvalues --    0.60184   0.60779   0.61587   0.62681   0.64757
 Alpha virt. eigenvalues --    0.65592   0.67946   0.68461   0.69195   0.71021
 Alpha virt. eigenvalues --    0.73004   0.75091   0.76792   0.77455   0.78818
 Alpha virt. eigenvalues --    0.79330   0.79475   0.80823   0.81365   0.83069
 Alpha virt. eigenvalues --    0.83186   0.84532   0.85104   0.85236   0.85727
 Alpha virt. eigenvalues --    0.86531   0.87326   0.88198   0.89091   0.90240
 Alpha virt. eigenvalues --    0.91004   0.91870   0.92418   0.93117   0.94698
 Alpha virt. eigenvalues --    0.95657   0.96339   0.98773   1.00287   1.00871
 Alpha virt. eigenvalues --    1.02084   1.05302   1.07329   1.08595   1.10129
 Alpha virt. eigenvalues --    1.13318   1.15886   1.18602   1.19157   1.22382
 Alpha virt. eigenvalues --    1.25461   1.27606   1.28016   1.29681   1.32688
 Alpha virt. eigenvalues --    1.34483   1.36651   1.38002   1.38236   1.40528
 Alpha virt. eigenvalues --    1.41540   1.44231   1.47133   1.51087   1.51922
 Alpha virt. eigenvalues --    1.55992   1.57946   1.61523   1.63209   1.65331
 Alpha virt. eigenvalues --    1.68964   1.70677   1.71440   1.71824   1.76014
 Alpha virt. eigenvalues --    1.78609   1.79760   1.81300   1.82233   1.83874
 Alpha virt. eigenvalues --    1.84672   1.85595   1.86892   1.87358   1.88263
 Alpha virt. eigenvalues --    1.90430   1.91616   1.92429   1.93113   1.95099
 Alpha virt. eigenvalues --    1.96281   1.96774   1.97162   1.99408   2.00082
 Alpha virt. eigenvalues --    2.01763   2.02105   2.02612   2.03056   2.04008
 Alpha virt. eigenvalues --    2.04157   2.04437   2.05715   2.06777   2.07168
 Alpha virt. eigenvalues --    2.08859   2.09046   2.10984   2.11622   2.12726
 Alpha virt. eigenvalues --    2.12852   2.15715   2.17414   2.21242   2.21626
 Alpha virt. eigenvalues --    2.23989   2.24913   2.26486   2.27176   2.28962
 Alpha virt. eigenvalues --    2.31210   2.33374   2.35447   2.38482   2.38928
 Alpha virt. eigenvalues --    2.39675   2.41739   2.47297   2.48520   2.49983
 Alpha virt. eigenvalues --    2.52035   2.54124   2.55725   2.56857   2.57854
 Alpha virt. eigenvalues --    2.59493   2.59965   2.61860   2.63275   2.65480
 Alpha virt. eigenvalues --    2.66759   2.68078   2.69033   2.69395   2.70798
 Alpha virt. eigenvalues --    2.71087   2.72822   2.73766   2.76588   2.78310
 Alpha virt. eigenvalues --    2.80552   2.83052   2.83909   2.85055   2.85876
 Alpha virt. eigenvalues --    2.87126   2.87656   2.89282   2.91186   2.92204
 Alpha virt. eigenvalues --    2.97376   2.98420   3.00589   3.04671   3.07935
 Alpha virt. eigenvalues --    3.12834   3.13865   3.15085   3.17087   3.19989
 Alpha virt. eigenvalues --    3.22568   3.24715   3.26442   3.32062   3.35106
 Alpha virt. eigenvalues --    3.38018   3.41731   3.42154   3.42672   3.42766
 Alpha virt. eigenvalues --    3.43364   3.46393   3.46520   3.47380   3.49660
 Alpha virt. eigenvalues --    3.54564   3.95522   4.03732   4.08087   4.12437
 Alpha virt. eigenvalues --    4.26810   4.34783   4.39048   4.43596   4.44845
 Alpha virt. eigenvalues --    4.51609   4.53444   4.62036   4.69297   4.72198
          Condensed to atoms (all electrons):
              1          2          3          4          5          6
     1  C    5.164236   0.344762  -0.079209  -0.120975   0.007947  -0.000257
     2  C    0.344762   4.352288   0.560552   0.267596  -0.036050   0.003959
     3  O   -0.079209   0.560552   8.102033  -0.099780   0.009259   0.016133
     4  N   -0.120975   0.267596  -0.099780   7.101927   0.256451  -0.039678
     5  C    0.007947  -0.036050   0.009259   0.256451   5.024157   0.327640
     6  C   -0.000257   0.003959   0.016133  -0.039678   0.327640   4.387605
     7  O   -0.000268   0.006965  -0.004882  -0.000527  -0.081356   0.551399
     8  N   -0.000060  -0.001005  -0.004476   0.001899  -0.102103   0.261592
     9  C   -0.000012   0.000113  -0.006336   0.000128  -0.000720  -0.024675
    10  C   -0.000001  -0.000015  -0.000325  -0.000082   0.006037  -0.031909
    11  H    0.366703  -0.022583   0.005136   0.004540  -0.000178   0.000009
    12  H    0.356859  -0.018611   0.001777   0.002180  -0.000255   0.000016
    13  H    0.365205  -0.021524   0.000813   0.001721  -0.000134  -0.000008
    14  H   -0.000187  -0.002232   0.000798  -0.040641   0.350951  -0.030477
    15  H   -0.000129   0.004955   0.000851  -0.036814   0.371562  -0.022122
    16  H   -0.000001  -0.000103   0.000035  -0.000101  -0.002320  -0.003660
    17  H    0.000000  -0.000007   0.000147  -0.000009   0.000109   0.002291
    18  H    0.000126   0.001037   0.014724  -0.000475  -0.000086  -0.003289
    19  H    0.000000  -0.000002  -0.000004   0.000000  -0.000139   0.004184
    20  H    0.000000  -0.000020   0.000003  -0.000004   0.000853  -0.004568
    21  H    0.000002   0.000048   0.000440   0.000007  -0.000167  -0.001739
    22  C   -0.000828  -0.022482   0.002571   0.250558  -0.036274  -0.001281
    23  H    0.008399  -0.009684   0.000144  -0.029833   0.004161   0.000075
    24  H   -0.000240   0.001939  -0.000085  -0.034804  -0.003916   0.000179
    25  C   -0.000868   0.000582  -0.000020  -0.057529  -0.003108   0.000183
    26  H   -0.000077   0.001097  -0.000046   0.006283  -0.000378  -0.000025
    27  H    0.000018  -0.000114   0.000002   0.000229   0.003764   0.000153
    28  O   -0.000006   0.000006   0.000000   0.002070  -0.000032   0.000000
    29  C    0.000000  -0.000001   0.000000  -0.000133   0.000001   0.000000
    30  H    0.000000   0.000000   0.000000   0.000001   0.000000   0.000000
    31  H    0.000000   0.000000   0.000000   0.000010  -0.000001   0.000000
    32  H    0.000000   0.000000   0.000000   0.000010   0.000000   0.000000
              7          8          9         10         11         12
     1  C   -0.000268  -0.000060  -0.000012  -0.000001   0.366703   0.356859
     2  C    0.006965  -0.001005   0.000113  -0.000015  -0.022583  -0.018611
     3  O   -0.004882  -0.004476  -0.006336  -0.000325   0.005136   0.001777
     4  N   -0.000527   0.001899   0.000128  -0.000082   0.004540   0.002180
     5  C   -0.081356  -0.102103  -0.000720   0.006037  -0.000178  -0.000255
     6  C    0.551399   0.261592  -0.024675  -0.031909   0.000009   0.000016
     7  O    8.138569  -0.092212   0.002606  -0.007558   0.000003   0.000000
     8  N   -0.092212   7.035985   0.280196   0.297440   0.000002   0.000000
     9  C    0.002606   0.280196   4.832222  -0.048702   0.000000   0.000001
    10  C   -0.007558   0.297440  -0.048702   4.808569   0.000000   0.000000
    11  H    0.000003   0.000002   0.000000   0.000000   0.546401  -0.023347
    12  H    0.000000   0.000000   0.000001   0.000000  -0.023347   0.587538
    13  H    0.000112   0.000001   0.000000   0.000000  -0.021102  -0.030033
    14  H    0.004100   0.003024   0.001152  -0.000169   0.000004   0.000007
    15  H   -0.001054   0.001505   0.000064  -0.000128   0.000002  -0.000009
    16  H   -0.000036  -0.039359   0.384104   0.003433   0.000000   0.000000
    17  H   -0.000092  -0.032165   0.382443  -0.005824   0.000000   0.000000
    18  H    0.000191  -0.042893   0.378943   0.001474  -0.000002  -0.000004
    19  H    0.000736  -0.040724  -0.004936   0.379544   0.000000   0.000000
    20  H    0.019471  -0.035015   0.004765   0.386034   0.000000   0.000000
    21  H    0.000995  -0.046954  -0.000295   0.390121   0.000000   0.000000
    22  C    0.000043  -0.000055   0.000009   0.000001   0.000444  -0.001871
    23  H   -0.000020   0.000002   0.000000   0.000000   0.000008  -0.001134
    24  H    0.000906   0.000000  -0.000003   0.000001  -0.000013   0.000195
    25  C    0.000036   0.000003  -0.000001   0.000000  -0.000002   0.000023
    26  H    0.000000   0.000000   0.000000   0.000000  -0.000015   0.001385
    27  H    0.000001   0.000002  -0.000001   0.000000   0.000001  -0.000039
    28  O    0.000000   0.000000   0.000000   0.000000   0.000000  -0.000026
    29  C    0.000000   0.000000   0.000000   0.000000   0.000000  -0.000001
    30  H    0.000000   0.000000   0.000000   0.000000   0.000000   0.000000
    31  H    0.000000   0.000000   0.000000   0.000000   0.000000   0.000000
    32  H    0.000000   0.000000   0.000000   0.000000   0.000000   0.000002
             13         14         15         16         17         18
     1  C    0.365205  -0.000187  -0.000129  -0.000001   0.000000   0.000126
     2  C   -0.021524  -0.002232   0.004955  -0.000103  -0.000007   0.001037
     3  O    0.000813   0.000798   0.000851   0.000035   0.000147   0.014724
     4  N    0.001721  -0.040641  -0.036814  -0.000101  -0.000009  -0.000475
     5  C   -0.000134   0.350951   0.371562  -0.002320   0.000109  -0.000086
     6  C   -0.000008  -0.030477  -0.022122  -0.003660   0.002291  -0.003289
     7  O    0.000112   0.004100  -0.001054  -0.000036  -0.000092   0.000191
     8  N    0.000001   0.003024   0.001505  -0.039359  -0.032165  -0.042893
     9  C    0.000000   0.001152   0.000064   0.384104   0.382443   0.378943
    10  C    0.000000  -0.000169  -0.000128   0.003433  -0.005824   0.001474
    11  H   -0.021102   0.000004   0.000002   0.000000   0.000000  -0.000002
    12  H   -0.030033   0.000007  -0.000009   0.000000   0.000000  -0.000004
    13  H    0.562736  -0.000002   0.000000   0.000000   0.000000  -0.000001
    14  H   -0.000002   0.637724  -0.037569   0.002099   0.000195   0.000047
    15  H    0.000000  -0.037569   0.586762   0.000504  -0.000012  -0.000041
    16  H    0.000000   0.002099   0.000504   0.612217  -0.028302  -0.040691
    17  H    0.000000   0.000195  -0.000012  -0.028302   0.595656  -0.028577
    18  H   -0.000001   0.000047  -0.000041  -0.040691  -0.028577   0.564173
    19  H    0.000000  -0.000019   0.000013   0.000564   0.003762  -0.000538
    20  H    0.000000  -0.000046  -0.000011  -0.000187   0.000198  -0.000256
    21  H    0.000000  -0.000010  -0.000007  -0.000295  -0.000473   0.002718
    22  C   -0.002826   0.001897  -0.002338   0.000003   0.000000  -0.000002
    23  H    0.001186  -0.000253   0.000463   0.000000   0.000000   0.000000
    24  H    0.000285  -0.000164   0.004297   0.000000   0.000000  -0.000001
    25  C    0.000085   0.001348  -0.002462   0.000000   0.000000   0.000000
    26  H    0.000033   0.000047   0.000021   0.000000   0.000000   0.000000
    27  H   -0.000004  -0.000383   0.001788   0.000000   0.000000   0.000000
    28  O   -0.000001  -0.000006  -0.000020   0.000000   0.000000   0.000000
    29  C    0.000000   0.000001  -0.000001   0.000000   0.000000   0.000000
    30  H    0.000000   0.000000   0.000000   0.000000   0.000000   0.000000
    31  H    0.000000   0.000000   0.000001   0.000000   0.000000   0.000000
    32  H    0.000000   0.000000   0.000000   0.000000   0.000000   0.000000
             19         20         21         22         23         24
     1  C    0.000000   0.000000   0.000002  -0.000828   0.008399  -0.000240
     2  C   -0.000002  -0.000020   0.000048  -0.022482  -0.009684   0.001939
     3  O   -0.000004   0.000003   0.000440   0.002571   0.000144  -0.000085
     4  N    0.000000  -0.000004   0.000007   0.250558  -0.029833  -0.034804
     5  C   -0.000139   0.000853  -0.000167  -0.036274   0.004161  -0.003916
     6  C    0.004184  -0.004568  -0.001739  -0.001281   0.000075   0.000179
     7  O    0.000736   0.019471   0.000995   0.000043  -0.000020   0.000906
     8  N   -0.040724  -0.035015  -0.046954  -0.000055   0.000002   0.000000
     9  C   -0.004936   0.004765  -0.000295   0.000009   0.000000  -0.000003
    10  C    0.379544   0.386034   0.390121   0.000001   0.000000   0.000001
    11  H    0.000000   0.000000   0.000000   0.000444   0.000008  -0.000013
    12  H    0.000000   0.000000   0.000000  -0.001871  -0.001134   0.000195
    13  H    0.000000   0.000000   0.000000  -0.002826   0.001186   0.000285
    14  H   -0.000019  -0.000046  -0.000010   0.001897  -0.000253  -0.000164
    15  H    0.000013  -0.000011  -0.000007  -0.002338   0.000463   0.004297
    16  H    0.000564  -0.000187  -0.000295   0.000003   0.000000   0.000000
    17  H    0.003762   0.000198  -0.000473   0.000000   0.000000   0.000000
    18  H   -0.000538  -0.000256   0.002718  -0.000002   0.000000  -0.000001
    19  H    0.622830  -0.023402  -0.043764   0.000000   0.000000   0.000000
    20  H   -0.023402   0.530484  -0.030676   0.000000   0.000000   0.000000
    21  H   -0.043764  -0.030676   0.607348   0.000000   0.000000   0.000000
    22  C    0.000000   0.000000   0.000000   4.902607   0.378355   0.374586
    23  H    0.000000   0.000000   0.000000   0.378355   0.589128  -0.030453
    24  H    0.000000   0.000000   0.000000   0.374586  -0.030453   0.597521
    25  C    0.000000   0.000000   0.000000   0.357087  -0.040866  -0.048890
    26  H    0.000000   0.000000   0.000000  -0.040834  -0.008654   0.006834
    27  H    0.000000   0.000000   0.000000  -0.039474   0.006527  -0.007802
    28  O    0.000000   0.000000   0.000000  -0.039950   0.005363   0.005810
    29  C    0.000000   0.000000   0.000000   0.004462  -0.000074  -0.000113
    30  H    0.000000   0.000000   0.000000  -0.000255   0.000005   0.000012
    31  H    0.000000   0.000000   0.000000   0.000019   0.000052  -0.000059
    32  H    0.000000   0.000000   0.000000   0.000014  -0.000072   0.000044
             25         26         27         28         29         30
     1  C   -0.000868  -0.000077   0.000018  -0.000006   0.000000   0.000000
     2  C    0.000582   0.001097  -0.000114   0.000006  -0.000001   0.000000
     3  O   -0.000020  -0.000046   0.000002   0.000000   0.000000   0.000000
     4  N   -0.057529   0.006283   0.000229   0.002070  -0.000133   0.000001
     5  C   -0.003108  -0.000378   0.003764  -0.000032   0.000001   0.000000
     6  C    0.000183  -0.000025   0.000153   0.000000   0.000000   0.000000
     7  O    0.000036   0.000000   0.000001   0.000000   0.000000   0.000000
     8  N    0.000003   0.000000   0.000002   0.000000   0.000000   0.000000
     9  C   -0.000001   0.000000  -0.000001   0.000000   0.000000   0.000000
    10  C    0.000000   0.000000   0.000000   0.000000   0.000000   0.000000
    11  H   -0.000002  -0.000015   0.000001   0.000000   0.000000   0.000000
    12  H    0.000023   0.001385  -0.000039  -0.000026  -0.000001   0.000000
    13  H    0.000085   0.000033  -0.000004  -0.000001   0.000000   0.000000
    14  H    0.001348   0.000047  -0.000383  -0.000006   0.000001   0.000000
    15  H   -0.002462   0.000021   0.001788  -0.000020  -0.000001   0.000000
    16  H    0.000000   0.000000   0.000000   0.000000   0.000000   0.000000
    17  H    0.000000   0.000000   0.000000   0.000000   0.000000   0.000000
    18  H    0.000000   0.000000   0.000000   0.000000   0.000000   0.000000
    19  H    0.000000   0.000000   0.000000   0.000000   0.000000   0.000000
    20  H    0.000000   0.000000   0.000000   0.000000   0.000000   0.000000
    21  H    0.000000   0.000000   0.000000   0.000000   0.000000   0.000000
    22  C    0.357087  -0.040834  -0.039474  -0.039950   0.004462  -0.000255
    23  H   -0.040866  -0.008654   0.006527   0.005363  -0.000074   0.000005
    24  H   -0.048890   0.006834  -0.007802   0.005810  -0.000113   0.000012
    25  C    4.790702   0.357983   0.363909   0.232872  -0.033939   0.005337
    26  H    0.357983   0.687860  -0.061290  -0.038617  -0.006310  -0.000094
    27  H    0.363909  -0.061290   0.684792  -0.039083  -0.006136  -0.000112
    28  O    0.232872  -0.038617  -0.039083   8.204850   0.258187  -0.032764
    29  C   -0.033939  -0.006310  -0.006136   0.258187   4.708204   0.394952
    30  H    0.005337  -0.000094  -0.000112  -0.032764   0.394952   0.583033
    31  H   -0.009161  -0.002667   0.013396  -0.037530   0.370613  -0.034584
    32  H   -0.008908   0.013045  -0.002725  -0.037503   0.370730  -0.034822
             31         32
     1  C    0.000000   0.000000
     2  C    0.000000   0.000000
     3  O    0.000000   0.000000
     4  N    0.000010   0.000010
     5  C   -0.000001   0.000000
     6  C    0.000000   0.000000
     7  O    0.000000   0.000000
     8  N    0.000000   0.000000
     9  C    0.000000   0.000000
    10  C    0.000000   0.000000
    11  H    0.000000   0.000000
    12  H    0.000000   0.000002
    13  H    0.000000   0.000000
    14  H    0.000000   0.000000
    15  H    0.000001   0.000000
    16  H    0.000000   0.000000
    17  H    0.000000   0.000000
    18  H    0.000000   0.000000
    19  H    0.000000   0.000000
    20  H    0.000000   0.000000
    21  H    0.000000   0.000000
    22  C    0.000019   0.000014
    23  H    0.000052  -0.000072
    24  H   -0.000059   0.000044
    25  C   -0.009161  -0.008908
    26  H   -0.002667   0.013045
    27  H    0.013396  -0.002725
    28  O   -0.037530  -0.037503
    29  C    0.370613   0.370730
    30  H   -0.034584  -0.034822
    31  H    0.658907  -0.052362
    32  H   -0.052362   0.659076
 Mulliken atomic charges:
              1
     1  C   -0.411137
     2  C    0.588535
     3  O   -0.520255
     4  N   -0.434225
     5  C   -0.095676
     6  C    0.608272
     7  O   -0.538127
     8  N   -0.444629
     9  C   -0.181064
    10  C   -0.177940
    11  H    0.143991
    12  H    0.125347
    13  H    0.143459
    14  H    0.108765
    15  H    0.129928
    16  H    0.112098
    17  H    0.110662
    18  H    0.153422
    19  H    0.101894
    20  H    0.152378
    21  H    0.122702
    22  C   -0.084185
    23  H    0.127176
    24  H    0.133936
    25  C    0.095601
    26  H    0.084420
    27  H    0.082583
    28  O   -0.483619
    29  C   -0.060440
    30  H    0.119293
    31  H    0.093366
    32  H    0.093472
 Sum of Mulliken atomic charges =   0.00000
 Mulliken charges with hydrogens summed into heavy atoms:
              1
     1  C    0.001660
     2  C    0.588535
     3  O   -0.520255
     4  N   -0.434225
     5  C    0.143017
     6  C    0.608272
     7  O   -0.538127
     8  N   -0.444629
     9  C    0.195117
    10  C    0.199034
    22  C    0.176927
    25  C    0.262604
    28  O   -0.483619
    29  C    0.245691
 Sum of Mulliken charges with hydrogens summed into heavy atoms =   0.00000
 Electronic spatial extent (au):  <R**2>=           4013.2982
 Charge=              0.0000 electrons
 Dipole moment (field-independent basis, Debye):
    X=              2.2885    Y=             -1.7587    Z=             -2.7425  Tot=              3.9814
 Quadrupole moment (field-independent basis, Debye-Ang):
   XX=            -74.3763   YY=            -81.0404   ZZ=            -89.7654
   XY=              3.8637   XZ=              0.8323   YZ=              3.5252
 Traceless Quadrupole moment (field-independent basis, Debye-Ang):
   XX=              7.3511   YY=              0.6870   ZZ=             -8.0380
   XY=              3.8637   XZ=              0.8323   YZ=              3.5252
 Octapole moment (field-independent basis, Debye-Ang**2):
  XXX=             -0.6976  YYY=              8.8284  ZZZ=             -7.2454  XYY=             13.1906
  XXY=            -25.6661  XXZ=            -24.5866  XZZ=              5.4800  YZZ=             -1.7799
  YYZ=              3.9836  XYZ=             -2.7843
 Hexadecapole moment (field-independent basis, Debye-Ang**3):
 XXXX=          -3435.1834 YYYY=           -838.6532 ZZZZ=           -444.2845 XXXY=            -61.9764
 XXXZ=            -46.4893 YYYX=             -6.9378 YYYZ=              1.0043 ZZZX=             25.0821
 ZZZY=             -0.5205 XXYY=           -777.9702 XXZZ=           -725.8063 YYZZ=           -213.1211
 XXYZ=             17.6021 YYXZ=             -3.2012 ZZXY=              8.7172
 N-N= 9.678168971851D+02 E-N=-3.541746282996D+03  KE= 6.826275311138D+02
 Calling FoFJK, ICntrl=      2127 FMM=F ISym2X=0 I1Cent= 0 IOpClX= 0 NMat=1 NMatS=1 NMatT=0.
 ***** Axes restored to original set *****
 -------------------------------------------------------------------
 Center     Atomic                   Forces (Hartrees/Bohr)
 Number     Number              X              Y              Z
 -------------------------------------------------------------------
      1        6           0.000005371   -0.000002034    0.000009692
      2        6           0.001264576   -0.000800778   -0.005918049
      3        8           0.000008128    0.000003783    0.000003947
      4        7          -0.001085692    0.000553924    0.010294553
      5        6          -0.002042916    0.001747539   -0.009034253
      6        6           0.001860209   -0.001502507    0.004654071
      7        8          -0.000004306   -0.000003191   -0.000001950
      8        7          -0.000002636    0.000003474   -0.000012983
      9        6           0.000004122   -0.000002506    0.000002556
     10        6           0.000000994    0.000005595   -0.000002274
     11        1           0.000000603    0.000001690    0.000006794
     12        1          -0.000000258    0.000000817    0.000005014
     13        1          -0.000001595   -0.000000943    0.000005129
     14        1           0.000000740    0.000002062   -0.000003498
     15        1          -0.000000434    0.000000081   -0.000001389
     16        1           0.000002356    0.000002930   -0.000007192
     17        1          -0.000000008    0.000005292   -0.000007519
     18        1           0.000000313    0.000004522   -0.000001314
     19        1          -0.000001077   -0.000001159   -0.000005508
     20        1          -0.000003612   -0.000004963   -0.000003729
     21        1           0.000001640   -0.000001656   -0.000003181
     22        6          -0.000004686   -0.000003155   -0.000002994
     23        1          -0.000001674   -0.000003048    0.000005258
     24        1          -0.000001427   -0.000003795    0.000002859
     25        6           0.000005824   -0.000000092    0.000007159
     26        1           0.000001073    0.000001065    0.000002156
     27        1          -0.000001558   -0.000000291   -0.000001751
     28        8          -0.000009383    0.000000688    0.000002126
     29        6           0.000009389   -0.000004436   -0.000003751
     30        1          -0.000001859   -0.000001249    0.000003628
     31        1          -0.000001236    0.000001157    0.000001256
     32        1          -0.000000979    0.000001184    0.000005137
 -------------------------------------------------------------------
 Cartesian Forces:  Max     0.010294553 RMS     0.001648711

 GradGradGradGradGradGradGradGradGradGradGradGradGradGradGradGradGradGrad
 Berny optimization.
 Internal  Forces:  Max     0.005318364 RMS     0.000719639
 Search for a local minimum.
 Step number   1 out of a maximum of  155 on scan point     1 out of    37
 All quantities printed in internal units (Hartrees-Bohrs-Radians)
 Mixed Optimization -- En-DIIS/RFO-DIIS
 Second derivative matrix not updated -- first step.
 ITU=  0
     Eigenvalues ---    0.00373   0.00501   0.00736   0.00859   0.00885
     Eigenvalues ---    0.00893   0.01112   0.01145   0.01477   0.01522
     Eigenvalues ---    0.01537   0.02024   0.02087   0.02811   0.04230
     Eigenvalues ---    0.05352   0.05522   0.05911   0.06420   0.06936
     Eigenvalues ---    0.07166   0.07411   0.07496   0.07627   0.07649
     Eigenvalues ---    0.09330   0.09764   0.10038   0.10510   0.10844
     Eigenvalues ---    0.11090   0.12817   0.13618   0.16000   0.16000
     Eigenvalues ---    0.16000   0.16000   0.16000   0.16000   0.16000
     Eigenvalues ---    0.16000   0.16000   0.16000   0.16000   0.16000
     Eigenvalues ---    0.21928   0.21935   0.22010   0.22867   0.23669
     Eigenvalues ---    0.23783   0.24408   0.24826   0.24991   0.25000
     Eigenvalues ---    0.25000   0.25000   0.28366   0.29453   0.30363
     Eigenvalues ---    0.33273   0.33302   0.33550   0.33553   0.33883
     Eigenvalues ---    0.34188   0.34239   0.34253   0.34322   0.34339
     Eigenvalues ---    0.34346   0.34499   0.34502   0.34553   0.34629
     Eigenvalues ---    0.34885   0.34891   0.34996   0.36026   0.36598
     Eigenvalues ---    0.36842   0.36913   0.43559   0.43737   0.50053
     Eigenvalues ---    0.50952   0.91221   0.922991000.000001000.00000
     Eigenvalues --- 1000.000001000.000001000.000001000.000001000.00000
     Eigenvalues --- 1000.000001000.000001000.000001000.000001000.00000
     Eigenvalues --- 1000.000001000.000001000.000001000.000001000.00000
     Eigenvalues --- 1000.000001000.000001000.000001000.000001000.00000
     Eigenvalues --- 1000.000001000.000001000.000001000.000001000.00000
     Eigenvalues --- 1000.000001000.000001000.000001000.000001000.00000
     Eigenvalues --- 1000.000001000.000001000.000001000.000001000.00000
     Eigenvalues --- 1000.000001000.000001000.000001000.000001000.00000
     Eigenvalues --- 1000.000001000.000001000.000001000.000001000.00000
     Eigenvalues --- 1000.000001000.000001000.000001000.000001000.00000
     Eigenvalues --- 1000.000001000.000001000.000001000.000001000.00000
 RFO step:  Lambda= 0.00000000D+00 EMin= 3.73409736D-03
 Linear search not attempted -- first point.
 Iteration  1 RMS(Cart)=  0.00011141 RMS(Int)=  0.00000000
 Iteration  2 RMS(Cart)=  0.00000001 RMS(Int)=  0.00000000
 Iteration  1 RMS(Cart)=  0.00000000 RMS(Int)=  0.00000000
 Variable       Old X    -DE/DX   Delta X   Delta X   Delta X     New X
                                 (Linear)    (Quad)   (Total)
    R1        2.87246   0.00000   0.00000   0.00001   0.00001   2.87247
    R2        2.05863   0.00000   0.00000   0.00000   0.00000   2.05863
    R3        2.06751   0.00000   0.00000   0.00000   0.00000   2.06750
    R4        2.06929   0.00000   0.00000   0.00000   0.00000   2.06929
    R5        2.32375  -0.00001   0.00000  -0.00001  -0.00001   2.32374
    R6        2.59812   0.00001   0.00000   0.00001   0.00001   2.59813
    R7        2.77341   0.00000   0.00000   0.00000   0.00000   2.77341
    R8        2.76086   0.00000   0.00000  -0.00001  -0.00001   2.76084
    R9        2.91345   0.00000   0.00000  -0.00002  -0.00002   2.91343
   R10        2.06496   0.00000   0.00000   0.00000   0.00000   2.06496
   R11        2.06491   0.00000   0.00000   0.00000   0.00000   2.06491
   R12        2.31891   0.00000   0.00000   0.00000   0.00000   2.31891
   R13        2.58917   0.00000   0.00000   0.00000   0.00000   2.58917
   R14        2.76457   0.00000   0.00000  -0.00001  -0.00001   2.76456
   R15        2.75978   0.00000   0.00000   0.00000   0.00000   2.75979
   R16        2.06790   0.00000   0.00000   0.00000   0.00000   2.06790
   R17        2.06281   0.00000   0.00000   0.00000   0.00000   2.06281
   R18        2.06904   0.00000   0.00000   0.00000   0.00000   2.06904
   R19        2.06761   0.00000   0.00000   0.00000   0.00000   2.06762
   R20        2.05682   0.00000   0.00000   0.00000   0.00000   2.05682
   R21        2.07529   0.00000   0.00000  -0.00001  -0.00001   2.07528
   R22        2.05852   0.00000   0.00000   0.00000   0.00000   2.05851
   R23        2.07013   0.00000   0.00000   0.00001   0.00001   2.07014
   R24        2.89067   0.00000   0.00000   0.00000   0.00000   2.89067
   R25        2.08525   0.00000   0.00000   0.00000   0.00000   2.08525
   R26        2.08575   0.00000   0.00000   0.00001   0.00001   2.08576
   R27        2.66771   0.00000   0.00000  -0.00001  -0.00001   2.66770
   R28        2.66986   0.00001   0.00000   0.00001   0.00001   2.66987
   R29        2.06408   0.00000   0.00000   0.00000   0.00000   2.06407
   R30        2.08097   0.00000   0.00000   0.00000   0.00000   2.08097
   R31        2.08092   0.00000   0.00000   0.00000   0.00000   2.08091
    A1        1.86917   0.00000   0.00000   0.00000   0.00000   1.86917
    A2        1.96543   0.00000   0.00000   0.00000   0.00000   1.96543
    A3        1.93906   0.00000   0.00000   0.00001   0.00001   1.93907
    A4        1.90589   0.00000   0.00000  -0.00001  -0.00001   1.90588
    A5        1.89793   0.00000   0.00000  -0.00001  -0.00001   1.89792
    A6        1.88531   0.00000   0.00000   0.00001   0.00001   1.88533
    A7        2.10635   0.00000   0.00000   0.00000   0.00000   2.10635
    A8        2.07207   0.00000   0.00000  -0.00002  -0.00002   2.07205
    A9        2.10437   0.00001   0.00000   0.00002   0.00002   2.10439
   A10        2.04417  -0.00028   0.00000   0.00007   0.00007   2.04424
   A11        2.16414   0.00088   0.00000   0.00000   0.00000   2.16414
   A12        2.04153  -0.00019   0.00000  -0.00006  -0.00006   2.04148
   A13        1.95823  -0.00002   0.00000   0.00001   0.00001   1.95823
   A14        1.92121   0.00012   0.00000   0.00000   0.00000   1.92121
   A15        1.88078  -0.00025   0.00000  -0.00002  -0.00002   1.88076
   A16        1.96712   0.00233   0.00000   0.00000   0.00000   1.96712
   A17        1.85155  -0.00246   0.00000  -0.00001  -0.00001   1.85154
   A18        1.87993   0.00006   0.00000   0.00001   0.00001   1.87994
   A19        2.06181   0.00000   0.00000   0.00001   0.00001   2.06181
   A20        2.06471   0.00000   0.00000   0.00002   0.00002   2.06473
   A21        2.15009   0.00000   0.00000  -0.00002  -0.00002   2.15008
   A22        2.13915   0.00000   0.00000   0.00001   0.00001   2.13916
   A23        2.03628  -0.00001   0.00000  -0.00002  -0.00002   2.03626
   A24        2.02954   0.00001   0.00000   0.00003   0.00003   2.02957
   A25        1.95168   0.00000   0.00000   0.00002   0.00002   1.95170
   A26        1.88980   0.00000   0.00000   0.00001   0.00001   1.88981
   A27        1.93927   0.00000   0.00000  -0.00002  -0.00002   1.93925
   A28        1.86917   0.00000   0.00000   0.00001   0.00001   1.86918
   A29        1.90955   0.00000   0.00000   0.00000   0.00000   1.90955
   A30        1.90238   0.00000   0.00000  -0.00002  -0.00002   1.90236
   A31        1.91207   0.00000   0.00000   0.00000   0.00000   1.91207
   A32        1.89597   0.00000   0.00000   0.00001   0.00001   1.89598
   A33        1.94385   0.00000   0.00000  -0.00001  -0.00001   1.94384
   A34        1.91866   0.00000   0.00000  -0.00002  -0.00002   1.91864
   A35        1.90107   0.00000   0.00000   0.00001   0.00001   1.90108
   A36        1.89213   0.00000   0.00000   0.00001   0.00001   1.89214
   A37        1.92560   0.00000   0.00000   0.00001   0.00001   1.92560
   A38        1.91322   0.00000   0.00000   0.00000   0.00000   1.91322
   A39        1.95591   0.00000   0.00000  -0.00001  -0.00001   1.95591
   A40        1.86291   0.00000   0.00000  -0.00001  -0.00001   1.86290
   A41        1.89466   0.00000   0.00000   0.00002   0.00002   1.89468
   A42        1.90909   0.00000   0.00000  -0.00001  -0.00001   1.90908
   A43        1.91610   0.00000   0.00000   0.00000   0.00000   1.91610
   A44        1.92901   0.00000   0.00000  -0.00001  -0.00001   1.92900
   A45        1.87383   0.00000   0.00000   0.00001   0.00001   1.87384
   A46        1.86794   0.00000   0.00000  -0.00001  -0.00001   1.86793
   A47        1.94224   0.00000   0.00000   0.00000   0.00000   1.94224
   A48        1.93536   0.00000   0.00000   0.00001   0.00001   1.93537
   A49        1.97329   0.00000   0.00000   0.00000   0.00000   1.97329
   A50        1.87211   0.00000   0.00000  -0.00001  -0.00001   1.87211
   A51        1.95060   0.00000   0.00000  -0.00001  -0.00001   1.95059
   A52        1.95116   0.00000   0.00000  -0.00001  -0.00001   1.95115
   A53        1.90002   0.00000   0.00000   0.00001   0.00001   1.90003
   A54        1.90022   0.00000   0.00000   0.00001   0.00001   1.90023
   A55        1.88868   0.00000   0.00000   0.00001   0.00001   1.88869
    D1       -0.09275   0.00000   0.00000   0.00006   0.00006  -0.09269
    D2        3.01870   0.00000   0.00000   0.00000   0.00000   3.01871
    D3       -2.18807   0.00000   0.00000   0.00008   0.00008  -2.18799
    D4        0.92338   0.00000   0.00000   0.00002   0.00002   0.92341
    D5        1.97758   0.00000   0.00000   0.00005   0.00005   1.97763
    D6       -1.19415   0.00000   0.00000   0.00000   0.00000  -1.19415
    D7        2.96083   0.00083   0.00000   0.00005   0.00005   2.96089
    D8        0.10276  -0.00083   0.00000   0.00002   0.00002   0.10278
    D9       -0.21086   0.00083   0.00000   0.00000   0.00000  -0.21086
   D10       -3.06894  -0.00083   0.00000  -0.00004  -0.00004  -3.06897
   D11       -0.72135  -0.00532   0.00000   0.00000   0.00000  -0.72135
   D12        1.48429  -0.00216   0.00000   0.00001   0.00001   1.48430
   D13       -2.75325  -0.00216   0.00000   0.00001   0.00001  -2.75324
   D14        2.15699  -0.00360   0.00000   0.00004   0.00004   2.15703
   D15       -1.92055  -0.00044   0.00000   0.00005   0.00005  -1.92050
   D16        0.12509  -0.00044   0.00000   0.00005   0.00005   0.12514
   D17        0.11382   0.00082   0.00000   0.00000   0.00000   0.11382
   D18        2.16047   0.00082   0.00000  -0.00001  -0.00001   2.16046
   D19       -1.99958   0.00082   0.00000  -0.00002  -0.00002  -1.99960
   D20       -2.74465  -0.00082   0.00000  -0.00005  -0.00005  -2.74470
   D21       -0.69800  -0.00082   0.00000  -0.00006  -0.00006  -0.69806
   D22        1.42513  -0.00082   0.00000  -0.00008  -0.00008   1.42506
   D23       -0.99232   0.00127   0.00000   0.00006   0.00006  -0.99227
   D24        2.26826   0.00127   0.00000   0.00000   0.00000   2.26826
   D25        3.11030  -0.00073   0.00000   0.00005   0.00005   3.11034
   D26        0.08769  -0.00073   0.00000  -0.00001  -0.00001   0.08768
   D27        1.05709  -0.00054   0.00000   0.00004   0.00004   1.05713
   D28       -1.96551  -0.00054   0.00000  -0.00002  -0.00002  -1.96553
   D29       -0.42888   0.00000   0.00000   0.00008   0.00008  -0.42880
   D30       -3.14004   0.00000   0.00000   0.00005   0.00005  -3.13999
   D31        2.83813   0.00000   0.00000   0.00002   0.00002   2.83815
   D32        0.12697   0.00000   0.00000  -0.00002  -0.00002   0.12696
   D33        1.17800   0.00000   0.00000  -0.00003  -0.00003   1.17797
   D34       -3.04992   0.00000   0.00000   0.00000   0.00000  -3.04992
   D35       -0.96125   0.00000   0.00000  -0.00003  -0.00003  -0.96128
   D36       -2.39249   0.00000   0.00000   0.00000   0.00000  -2.39250
   D37       -0.33722   0.00000   0.00000   0.00002   0.00002  -0.33720
   D38        1.75144   0.00000   0.00000  -0.00001  -0.00001   1.75144
   D39       -2.57864   0.00000   0.00000  -0.00003  -0.00003  -2.57867
   D40       -0.48251   0.00000   0.00000  -0.00005  -0.00005  -0.48256
   D41        1.60022   0.00000   0.00000  -0.00004  -0.00004   1.60018
   D42        0.96600   0.00000   0.00000  -0.00006  -0.00006   0.96594
   D43        3.06213   0.00000   0.00000  -0.00008  -0.00008   3.06205
   D44       -1.13833   0.00000   0.00000  -0.00007  -0.00007  -1.13839
   D45        1.03777   0.00000   0.00000   0.00003   0.00003   1.03780
   D46       -1.01882   0.00000   0.00000   0.00005   0.00005  -1.01878
   D47       -3.13172   0.00000   0.00000   0.00004   0.00004  -3.13169
   D48       -1.09339   0.00000   0.00000   0.00001   0.00001  -1.09337
   D49        3.13321   0.00000   0.00000   0.00003   0.00003   3.13324
   D50        1.02031   0.00000   0.00000   0.00002   0.00002   1.02033
   D51       -3.11992   0.00000   0.00000   0.00002   0.00002  -3.11990
   D52        1.10667   0.00000   0.00000   0.00004   0.00004   1.10671
   D53       -1.00623   0.00000   0.00000   0.00002   0.00002  -1.00620
   D54        3.13457   0.00000   0.00000   0.00000   0.00000   3.13458
   D55       -1.05145   0.00000   0.00000   0.00001   0.00001  -1.05144
   D56        1.02568   0.00000   0.00000   0.00000   0.00000   1.02568
   D57        3.14090   0.00000   0.00000  -0.00001  -0.00001   3.14089
   D58       -1.06101   0.00000   0.00000  -0.00001  -0.00001  -1.06102
   D59        1.05905   0.00000   0.00000  -0.00002  -0.00002   1.05903
         Item               Value     Threshold  Converged?
 Maximum Force            0.000016     0.000450     YES
 RMS     Force            0.000003     0.000300     YES
 Maximum Displacement     0.000375     0.001800     YES
 RMS     Displacement     0.000111     0.001200     YES
 Predicted change in Energy=-2.447859D-09
 Optimization completed.
    -- Stationary point found.
                           ----------------------------
                           !   Optimized Parameters   !
                           ! (Angstroms and Degrees)  !
 --------------------------                            --------------------------
 ! Name  Definition              Value          Derivative Info.                !
 --------------------------------------------------------------------------------
 ! R1    R(1,2)                  1.52           -DE/DX =    0.0                 !
 ! R2    R(1,11)                 1.0894         -DE/DX =    0.0                 !
 ! R3    R(1,12)                 1.0941         -DE/DX =    0.0                 !
 ! R4    R(1,13)                 1.095          -DE/DX =    0.0                 !
 ! R5    R(2,3)                  1.2297         -DE/DX =    0.0                 !
 ! R6    R(2,4)                  1.3749         -DE/DX =    0.0                 !
 ! R7    R(4,5)                  1.4676         -DE/DX =    0.0                 !
 ! R8    R(4,22)                 1.461          -DE/DX =    0.0                 !
 ! R9    R(5,6)                  1.5417         -DE/DX =    0.0                 !
 ! R10   R(5,14)                 1.0927         -DE/DX =    0.0                 !
 ! R11   R(5,15)                 1.0927         -DE/DX =    0.0                 !
 ! R12   R(6,7)                  1.2271         -DE/DX =    0.0                 !
 ! R13   R(6,8)                  1.3701         -DE/DX =    0.0                 !
 ! R14   R(8,9)                  1.4629         -DE/DX =    0.0                 !
 ! R15   R(8,10)                 1.4604         -DE/DX =    0.0                 !
 ! R16   R(9,16)                 1.0943         -DE/DX =    0.0                 !
 ! R17   R(9,17)                 1.0916         -DE/DX =    0.0                 !
 ! R18   R(9,18)                 1.0949         -DE/DX =    0.0                 !
 ! R19   R(10,19)                1.0941         -DE/DX =    0.0                 !
 ! R20   R(10,20)                1.0884         -DE/DX =    0.0                 !
 ! R21   R(10,21)                1.0982         -DE/DX =    0.0                 !
 ! R22   R(22,23)                1.0893         -DE/DX =    0.0                 !
 ! R23   R(22,24)                1.0955         -DE/DX =    0.0                 !
 ! R24   R(22,25)                1.5297         -DE/DX =    0.0                 !
 ! R25   R(25,26)                1.1035         -DE/DX =    0.0                 !
 ! R26   R(25,27)                1.1037         -DE/DX =    0.0                 !
 ! R27   R(25,28)                1.4117         -DE/DX =    0.0                 !
 ! R28   R(28,29)                1.4128         -DE/DX =    0.0                 !
 ! R29   R(29,30)                1.0923         -DE/DX =    0.0                 !
 ! R30   R(29,31)                1.1012         -DE/DX =    0.0                 !
 ! R31   R(29,32)                1.1012         -DE/DX =    0.0                 !
 ! A1    A(2,1,11)             107.0956         -DE/DX =    0.0                 !
 ! A2    A(2,1,12)             112.6109         -DE/DX =    0.0                 !
 ! A3    A(2,1,13)             111.1            -DE/DX =    0.0                 !
 ! A4    A(11,1,12)            109.1995         -DE/DX =    0.0                 !
 ! A5    A(11,1,13)            108.7433         -DE/DX =    0.0                 !
 ! A6    A(12,1,13)            108.0203         -DE/DX =    0.0                 !
 ! A7    A(1,2,3)              120.685          -DE/DX =    0.0                 !
 ! A8    A(1,2,4)              118.7208         -DE/DX =    0.0                 !
 ! A9    A(3,2,4)              120.5713         -DE/DX =    0.0                 !
 ! A10   A(2,4,5)              117.1224         -DE/DX =   -0.0003              !
 ! A11   A(2,4,22)             123.996          -DE/DX =    0.0009              !
 ! A12   A(5,4,22)             116.9712         -DE/DX =   -0.0002              !
 ! A13   A(4,5,6)              112.1981         -DE/DX =    0.0                 !
 ! A14   A(4,5,14)             110.0773         -DE/DX =    0.0001              !
 ! A15   A(4,5,15)             107.7605         -DE/DX =   -0.0002              !
 ! A16   A(6,5,14)             112.7077         -DE/DX =    0.0023              !
[...]
   D11       -0.72136  -0.01369   0.00000   0.00000   0.00000  -0.72136
   D12        1.41210  -0.00750   0.00014   0.00030   0.00044   1.41253
   D13       -2.83988  -0.00752   0.00017   0.00015   0.00033  -2.83955
   D14        1.84350  -0.00782   0.00005  -0.00082  -0.00076   1.84274
   D15       -2.30623  -0.00163   0.00019  -0.00051  -0.00032  -2.30655
   D16       -0.27502  -0.00165   0.00022  -0.00066  -0.00044  -0.27545
   D17       -0.21831   0.00191   0.00012  -0.00083  -0.00071  -0.21901
   D18        1.84827   0.00191   0.00011  -0.00083  -0.00071   1.84755
   D19       -2.30165   0.00191   0.00012  -0.00076  -0.00063  -2.30229
   D20       -2.74834  -0.00191   0.00008  -0.00006   0.00002  -2.74832
   D21       -0.68176  -0.00191   0.00007  -0.00006   0.00001  -0.68175
   D22        1.45150  -0.00191   0.00008   0.00001   0.00009   1.45160
   D23       -0.02300  -0.00050  -0.00019  -0.00026  -0.00045  -0.02345
   D24       -2.96773  -0.00449   0.00000   0.00000   0.00000  -2.96773
   D25       -2.16765  -0.00175  -0.00036  -0.00047  -0.00083  -2.16848
   D26        1.17080  -0.00574  -0.00017  -0.00022  -0.00038   1.17042
   D27        2.08917  -0.00168  -0.00031  -0.00054  -0.00085   2.08832
   D28       -0.85557  -0.00567  -0.00012  -0.00029  -0.00040  -0.85597
   D29       -0.36727   0.00192  -0.00009  -0.00038  -0.00047  -0.36774
   D30        3.12774   0.00193  -0.00006  -0.00021  -0.00027   3.12746
   D31        2.97044  -0.00193   0.00010  -0.00010   0.00000   2.97044
   D32        0.18226  -0.00192   0.00013   0.00007   0.00020   0.18246
   D33        0.49630   0.00001   0.00091  -0.00042   0.00048   0.49678
   D34        2.57316   0.00000   0.00085  -0.00046   0.00039   2.57356
   D35       -1.62711   0.00000   0.00085  -0.00039   0.00046  -1.62664
   D36       -2.98896   0.00001   0.00087  -0.00055   0.00032  -2.98864
   D37       -0.91210   0.00000   0.00081  -0.00058   0.00023  -0.91187
   D38        1.17082   0.00000   0.00081  -0.00052   0.00030   1.17112
   D39       -2.46233   0.00000   0.00026  -0.00051  -0.00025  -2.46258
   D40       -0.36773   0.00000   0.00023  -0.00045  -0.00022  -0.36795
   D41        1.72684   0.00000   0.00026  -0.00044  -0.00019   1.72665
   D42        0.99943   0.00000   0.00031  -0.00038  -0.00007   0.99936
   D43        3.09403   0.00000   0.00028  -0.00031  -0.00003   3.09399
   D44       -1.09459   0.00000   0.00030  -0.00031   0.00000  -1.09459
   D45        1.04156   0.00000  -0.00006   0.00008   0.00001   1.04157
   D46       -1.01553   0.00000  -0.00006   0.00008   0.00003  -1.01550
   D47       -3.12822   0.00000  -0.00006   0.00010   0.00004  -3.12818
   D48       -1.06936   0.00000  -0.00006   0.00020   0.00014  -1.06923
   D49       -3.12646   0.00000  -0.00005   0.00020   0.00015  -3.12630
   D50        1.04404   0.00001  -0.00006   0.00022   0.00016   1.04420
   D51       -3.08712  -0.00001  -0.00009   0.00005  -0.00004  -3.08716
   D52        1.13897  -0.00001  -0.00008   0.00006  -0.00002   1.13895
   D53       -0.97372   0.00000  -0.00009   0.00008  -0.00001  -0.97373
   D54       -3.13127   0.00000  -0.00010   0.00004  -0.00006  -3.13133
   D55       -1.03843  -0.00001  -0.00011  -0.00002  -0.00013  -1.03856
   D56        1.03472   0.00001  -0.00011   0.00005  -0.00006   1.03466
   D57       -3.14044   0.00001  -0.00006   0.00120   0.00114  -3.13930
   D58       -1.05915   0.00001  -0.00006   0.00115   0.00109  -1.05806
   D59        1.06034   0.00002  -0.00006   0.00122   0.00116   1.06150
         Item               Value     Threshold  Converged?
 Maximum Force            0.000056     0.000450     YES
 RMS     Force            0.000012     0.000300     YES
 Maximum Displacement     0.002864     0.001800     NO 
 RMS     Displacement     0.000811     0.001200     YES
 Predicted change in Energy=-9.780735D-08
 GradGradGradGradGradGradGradGradGradGradGradGradGradGradGradGradGradGrad

                          Input orientation:                          
 ---------------------------------------------------------------------
 Center     Atomic      Atomic             Coordinates (Angstroms)
 Number     Number       Type             X           Y           Z
 ---------------------------------------------------------------------
      1          6           0        0.868160    3.104827    0.597039
      2          6           0        0.137393    2.175437   -0.356711
      3          8           0       -0.739844    2.592497   -1.095428
      4          7           0        0.558472    0.838749   -0.467341
      5          6           0       -0.490922   -0.133572   -0.771317
      6          6           0       -1.818398    0.098472   -0.005369
      7          8           0       -1.948708    1.008585    0.800833
      8          7           0       -2.747994   -0.916570   -0.105588
      9          6           0       -2.766977   -1.911899   -1.168039
     10          6           0       -4.009667   -0.760608    0.609971
     11          1           0        0.392620    4.080935    0.508884
     12          1           0        1.929532    3.206326    0.348158
     13          1           0        0.789334    2.758273    1.631857
     14          1           0       -0.702587   -0.125974   -1.847142
     15          1           0       -0.113213   -1.128711   -0.527481
     16          1           0       -1.770091   -2.097467   -1.564491
     17          1           0       -3.147106   -2.858140   -0.768341
     18          1           0       -3.419345   -1.611493   -2.000837
     19          1           0       -4.310234   -1.724815    1.033674
     20          1           0       -3.868906   -0.033035    1.406675
     21          1           0       -4.809444   -0.409251   -0.056253
     22          6           0        1.626475    0.306263    0.387188
     23          1           0        2.141381    1.117485    0.897946
     24          1           0        1.224305   -0.354671    1.167046
     25          6           0        2.665008   -0.456368   -0.436065
     26          1           0        3.111072    0.220173   -1.183541
     27          1           0        2.196718   -1.287098   -0.992626
     28          8           0        3.640101   -0.946552    0.461634
     29          6           0        4.671475   -1.664626   -0.182454
     30          1           0        5.366105   -1.999849    0.591159
     31          1           0        4.283544   -2.545634   -0.717860
     32          1           0        5.217990   -1.037690   -0.904157
 ---------------------------------------------------------------------
                    Distance matrix (angstroms):
                    1          2          3          4          5
     1  C    0.000000
     2  C    1.519021   0.000000
     3  O    2.390105   1.220323   0.000000
     4  N    2.522682   1.405803   2.270628   0.000000
     5  C    3.769181   2.428621   2.756531   1.462544   0.000000
     6  C    4.076599   2.874429   2.927742   2.531982   1.550068
     7  O    3.517173   2.655799   2.750625   2.814792   2.429262
     8  N    5.453612   4.236629   4.162452   3.760947   2.480051
     9  C    6.441837   5.079364   4.940054   4.372145   2.915521
    10  C    6.223741   5.172324   4.984320   4.958471   3.831801
    11  H    1.089356   2.108393   2.464091   3.390029   4.492397
    12  H    1.094876   2.184338   3.096174   2.854867   4.273961
    13  H    1.094149   2.172355   3.131126   2.853858   3.972036
    14  H    4.345036   2.867654   2.820735   2.103523   1.096476
    15  H    4.488928   3.318035   3.816100   2.079825   1.091981
    16  H    6.220646   4.832694   4.824644   3.904780   2.474325
    17  H    7.317349   6.024472   5.967524   5.242985   3.805075
    18  H    6.882974   5.449254   5.066855   4.917145   3.503089
    19  H    7.094495   6.076720   5.993325   5.703438   4.514110
    20  H    5.739467   4.902786   4.790091   4.886063   4.020514
    21  H    6.709003   5.589461   5.162559   5.526392   4.385994
    22  C    2.907067   2.502910   3.608945   1.467784   2.453356
    23  H    2.379320   2.590249   3.801402   2.108863   3.358660
    24  H    3.524184   3.147166   4.202674   2.130447   2.597718
    25  C    4.120447   3.649867   4.617722   2.473015   3.190061
    26  H    4.064769   3.653693   4.523852   2.722379   3.642722
    27  H    4.856038   4.078523   4.866746   2.734776   2.933089
    28  O    4.910770   4.762926   5.842365   3.680588   4.387078
    29  C    6.149837   5.944270   6.945430   4.823364   5.416755
    30  H    6.803621   6.758025   7.824119   5.682552   6.296356
    31  H    6.732126   6.293608   7.195650   5.039144   5.349433
    32  H    6.191531   6.036252   6.979300   5.042117   5.781587
                    6          7          8          9         10
     6  C    0.000000
     7  O    1.222803   0.000000
     8  N    1.380038   2.273033   0.000000
     9  C    2.508625   3.615971   1.455967   0.000000
    10  C    2.432760   2.722871   1.458824   2.455823   0.000000
    11  H    4.584002   3.873808   5.934315   6.979197   6.544531
    12  H    4.881671   4.480594   6.251672   7.110013   7.146971
    13  H    4.068822   3.353935   5.388495   6.503636   6.037979
    14  H    2.165072   3.138759   2.800311   2.812902   4.168566
    15  H    2.164770   3.114721   2.676764   2.840099   4.075739
    16  H    2.693574   3.908224   2.116413   1.088757   3.395758
    17  H    3.330037   4.341661   2.090030   1.095275   2.653940
    18  H    3.077159   4.108155   2.127346   1.099718   2.808702
    19  H    3.257796   3.619737   2.095656   2.695215   1.095245
    20  H    2.493140   2.266976   2.079428   3.372467   1.088078
    21  H    3.034259   3.305853   2.123531   2.768698   1.098613
    22  C    3.473388   3.666918   4.568821   5.161530   5.740552
    23  H    4.187387   4.092690   5.389846   6.126780   6.437822
    24  H    3.292102   3.472835   4.208858   4.879336   5.279165
    25  C    4.538091   4.996236   5.442572   5.671051   6.762991
    26  H    5.069770   5.491876   6.064884   6.252794   7.408342
    27  H    4.360692   5.066676   5.037291   5.005938   6.431541
    28  O    5.577219   5.930632   6.413298   6.681196   7.653465
    29  C    6.727431   7.206922   7.457480   7.507536   8.763984
    30  H    7.508387   7.912087   8.215689   8.321631   9.457334
    31  H    6.688246   7.333475   7.243704   7.093246   8.586432
    32  H    7.183970   7.645638   8.006827   8.037012   9.355159
                   11         12         13         14         15
    11  H    0.000000
    12  H    1.775633   0.000000
    13  H    1.779855   1.774454   0.000000
    14  H    4.944535   4.780336   4.759007   0.000000
    15  H    5.335760   4.871560   4.537177   1.759076   0.000000
    16  H    6.866503   6.743564   6.351811   2.259699   2.181541
    17  H    7.893778   7.987276   7.266403   3.821546   3.500492
    18  H    7.296131   7.572294   7.071372   3.100187   3.651625
    19  H    7.489925   7.982529   6.816267   4.885746   4.517469
    20  H    5.990942   6.725756   5.435192   4.541095   4.364252
    21  H    6.895116   7.658312   6.650507   4.489299   4.774333
    22  C    3.973079   2.916116   2.874433   3.256315   2.433574
    23  H    3.462885   2.170347   2.249187   4.143651   3.487181
    24  H    4.560644   3.721373   3.177368   3.584766   2.293363
    25  C    5.161764   3.817233   4.257744   3.666196   2.859880
    26  H    5.015952   3.557984   4.445097   3.886409   3.556110
    27  H    5.858761   4.696802   5.023312   3.237958   2.361616
    28  O    5.985315   4.492807   4.818923   4.986254   3.885730
    29  C    7.197085   5.614800   6.158310   5.832596   4.826955
    30  H    7.856097   6.242864   6.683533   6.803362   5.659785
    31  H    7.781749   6.305776   6.772157   5.656106   4.623353
    32  H    7.175041   5.513069   6.360323   6.064130   5.345268
                   16         17         18         19         20
    16  H    0.000000
    17  H    1.763135   0.000000
    18  H    1.773867   1.774060   0.000000
    19  H    3.652623   2.425809   3.164615   0.000000
    20  H    4.182670   3.637707   3.782166   1.787742   0.000000
    21  H    3.789791   3.044256   2.675662   1.779849   1.779413
    22  C    4.596045   5.842582   5.902605   6.307752   5.599437
    23  H    5.630197   6.822771   6.839001   7.051271   6.140525
    24  H    4.411920   5.396510   5.760084   5.703175   5.108980
    25  C    4.861754   6.297586   6.387658   7.240379   6.801981
    26  H    5.416856   6.986644   6.831494   7.985913   7.449391
    27  H    4.088924   5.574490   5.715058   6.829196   6.642373
    28  O    5.890667   7.157736   7.506110   8.008792   7.623175
    29  C    6.602360   7.930823   8.292810   9.063867   8.838865
    30  H    7.455310   8.663698   9.168064   9.690356   9.477281
    31  H    6.128959   7.437390   7.864677   8.808782   8.791431
    32  H    7.098763   8.561969   8.725566   9.747532   9.429791
                   21         22         23         24         25
    21  H    0.000000
    22  C    6.490736   0.000000
    23  H    7.180208   1.088156   0.000000
    24  H    6.156750   1.098523   1.755188   0.000000
    25  C    7.484244   1.529020   2.128564   2.157761   0.000000
    26  H    8.025056   2.163013   2.465371   3.068484   1.102452
    27  H    7.122760   2.183543   3.059304   2.545425   1.104159
    28  O    8.482435   2.372715   2.587813   2.585343   1.413135
    29  C    9.564503   3.671638   3.912644   3.926846   2.355868
    30  H   10.319445   4.398249   4.495635   4.493636   3.276194
    31  H    9.363989   4.051477   4.540719   4.208579   2.657837
    32  H   10.082822   4.046327   4.166279   4.550375   2.659842
                   26         27         28         29         30
    26  H    0.000000
    27  H    1.773233   0.000000
    28  O    2.085118   2.077064   0.000000
    29  C    2.643766   2.631222   1.412166   0.000000
    30  H    3.628117   3.614056   2.026155   1.092411   0.000000
    31  H    3.039941   2.452398   2.088609   1.101510   1.784194
    32  H    2.469692   3.032839   2.088881   1.101173   1.784281
                   31         32
    31  H    0.000000
    32  H    1.783757   0.000000
 Stoichiometry    C9H18N2O3
 Framework group  C1[X(C9H18N2O3)]
 Deg. of freedom    90
 Full point group                 C1      NOp   1
 Largest Abelian subgroup         C1      NOp   1
 Largest concise Abelian subgroup C1      NOp   1
                         Standard orientation:                         
 ---------------------------------------------------------------------
 Center     Atomic      Atomic             Coordinates (Angstroms)
 Number     Number       Type             X           Y           Z
 ---------------------------------------------------------------------
      1          6           0        0.788350    3.001665    0.429467
      2          6           0        0.068718    1.970096   -0.422249
      3          8           0       -0.826485    2.295688   -1.185001
      4          7           0        0.519770    0.638659   -0.411952
      5          6           0       -0.509921   -0.381223   -0.608459
      6          6           0       -1.833607   -0.107355    0.150200
      7          8           0       -1.975996    0.871864    0.868602
      8          7           0       -2.740201   -1.147795    0.158920
      9          6           0       -2.747992   -2.239414   -0.804484
     10          6           0       -3.996899   -0.952951    0.873703
     11          1           0        0.289042    3.954200    0.256068
     12          1           0        1.844122    3.102780    0.157666
     13          1           0        0.729557    2.752968    1.493353
     14          1           0       -0.734030   -0.480232   -1.677211
     15          1           0       -0.106178   -1.340139   -0.276957
     16          1           0       -1.751636   -2.439414   -1.195208
     17          1           0       -3.101189   -3.151801   -0.312112
     18          1           0       -3.416741   -2.033819   -1.652944
     19          1           0       -4.269864   -1.879173    1.390582
     20          1           0       -3.864133   -0.150262    1.596184
     21          1           0       -4.812294   -0.684162    0.188259
     22          6           0        1.609712    0.213406    0.474376
     23          1           0        2.111252    1.080616    0.899216
     24          1           0        1.232143   -0.379526    1.318548
     25          6           0        2.656356   -0.600400   -0.287306
     26          1           0        3.077810    0.012111   -1.101313
     27          1           0        2.201349   -1.490321   -0.756534
     28          8           0        3.652921   -0.981534    0.639271
     29          6           0        4.693418   -1.734191    0.051829
     30          1           0        5.404554   -1.979100    0.844084
     31          1           0        4.320166   -2.670359   -0.392690
     32          1           0        5.216747   -1.166373   -0.733211
 ---------------------------------------------------------------------
 Rotational constants (GHZ):      0.8821737      0.3650926      0.2853283
 Standard basis: 6-31G(d,p) (6D, 7F)
 There are   300 symmetry adapted basis functions of A   symmetry.
 Integral buffers will be    131072 words long.
 Raffenetti 2 integral format.
 Two-electron integral symmetry is turned on.
   300 basis functions,   518 primitive gaussians,   300 cartesian basis functions
    55 alpha electrons       55 beta electrons
       nuclear repulsion energy       961.5568044708 Hartrees.
 NAtoms=   32 NActive=   32 NUniq=   32 SFac= 1.00D+00 NAtFMM=   60 NAOKFM=F Big=F
 One-electron integrals computed using PRISM.
 NBasis=   300 RedAO= T  NBF=   300
 NBsUse=   300 1.00D-06 NBFU=   300
 Initial guess read from the read-write file.
 B after Tr=     0.000000    0.000000    0.000000
         Rot=    1.000000    0.000000    0.000000    0.000000 Ang=   0.00 deg.
 Initial guess orbital symmetries:
       Occupied  (A) (A) (A) (A) (A) (A) (A) (A) (A) (A) (A) (A)
                 (A) (A) (A) (A) (A) (A) (A) (A) (A) (A) (A) (A)
                 (A) (A) (A) (A) (A) (A) (A) (A) (A) (A) (A) (A)
                 (A) (A) (A) (A) (A) (A) (A) (A) (A) (A) (A) (A)
                 (A) (A) (A) (A) (A) (A) (A)
       Virtual   (A) (A) (A) (A) (A) (A) (A) (A) (A) (A) (A) (A)
                 (A) (A) (A) (A) (A) (A) (A) (A) (A) (A) (A) (A)
                 (A) (A) (A) (A) (A) (A) (A) (A) (A) (A) (A) (A)
                 (A) (A) (A) (A) (A) (A) (A) (A) (A) (A) (A) (A)
                 (A) (A) (A) (A) (A) (A) (A) (A) (A) (A) (A) (A)
                 (A) (A) (A) (A) (A) (A) (A) (A) (A) (A) (A) (A)
                 (A) (A) (A) (A) (A) (A) (A) (A) (A) (A) (A) (A)
                 (A) (A) (A) (A) (A) (A) (A) (A) (A) (A) (A) (A)
                 (A) (A) (A) (A) (A) (A) (A) (A) (A) (A) (A) (A)
                 (A) (A) (A) (A) (A) (A) (A) (A) (A) (A) (A) (A)
                 (A) (A) (A) (A) (A) (A) (A) (A) (A) (A) (A) (A)
                 (A) (A) (A) (A) (A) (A) (A) (A) (A) (A) (A) (A)
                 (A) (A) (A) (A) (A) (A) (A) (A) (A) (A) (A) (A)
                 (A) (A) (A) (A) (A) (A) (A) (A) (A) (A) (A) (A)
                 (A) (A) (A) (A) (A) (A) (A) (A) (A) (A) (A) (A)
                 (A) (A) (A) (A) (A) (A) (A) (A) (A) (A) (A) (A)
                 (A) (A) (A) (A) (A) (A) (A) (A) (A) (A) (A) (A)
                 (A) (A) (A) (A) (A) (A) (A) (A) (A) (A) (A) (A)
                 (A) (A) (A) (A) (A) (A) (A) (A) (A) (A) (A) (A)
                 (A) (A) (A) (A) (A) (A) (A) (A) (A) (A) (A) (A)
                 (A) (A) (A) (A) (A)
 Requested convergence on RMS density matrix=1.00D-08 within 128 cycles.
 Requested convergence on MAX density matrix=1.00D-06.
 Requested convergence on             energy=1.00D-06.
 No special actions if energy rises.
 Keep R1 ints in memory in canonical form, NReq=1033484644.
