 Entering Gaussian System, Link 0=/data/opt/apps/g09-C01/g09
 Initial command:
 /data/opt/apps/g09-C01/l1.exe /tmp/g09-tuu61186-1098594c21e64fea8x/Gau-1098663.inp -scrdir=/tmp/g09-tuu61186-1098594c21e64fea8x/
 Entering Link 1 = /data/opt/apps/g09-C01/l1.exe PID=   1098671.
  
 Copyright (c) 1988,1990,1992,1993,1995,1998,2003,2009,2011,
            Gaussian, Inc.  All Rights Reserved.
  
 This is part of the Gaussian(R) 09 program.  It is based on
 the Gaussian(R) 03 system (copyright 2003, Gaussian, Inc.),
 the Gaussian(R) 98 system (copyright 1998, Gaussian, Inc.),
 the Gaussian(R) 94 system (copyright 1995, Gaussian, Inc.),
 the Gaussian 92(TM) system (copyright 1992, Gaussian, Inc.),
 the Gaussian 90(TM) system (copyright 1990, Gaussian, Inc.),
 the Gaussian 88(TM) system (copyright 1988, Gaussian, Inc.),
 the Gaussian 86(TM) system (copyright 1986, Carnegie Mellon
 University), and the Gaussian 82(TM) system (copyright 1983,
 Carnegie Mellon University). Gaussian is a federally registered
 trademark of Gaussian, Inc.
  
 This software contains proprietary and confidential information,
 including trade secrets, belonging to Gaussian, Inc.
  
 This software is provided under written license and may be
 used, copied, transmitted, or stored only in accord with that
 written license.
  
 The following legend is applicable only to US Government
 contracts under FAR:
  
                    RESTRICTED RIGHTS LEGEND
  
 Use, reproduction and disclosure by the US Government is
 subject to restrictions as set forth in subparagraphs (a)
 and (c) of the Commercial Computer Software - Restricted
 Rights clause in FAR 52.227-19.
  
 Gaussian, Inc.
 340 Quinnipiac St., Bldg. 40, Wallingford CT 06492
  
  
 ---------------------------------------------------------------
 Warning -- This program may not be used in any manner that
 competes with the business of Gaussian, Inc. or will provide
 assistance to any competitor of Gaussian, Inc.  The licensee
 of this program is prohibited from giving any competitor of
 Gaussian, Inc. access to this program.  By using this program,
 the user acknowledges that Gaussian, Inc. is engaged in the
 business of creating and licensing software in the field of
 computational chemistry and represents and warrants to the
 licensee that it is not a competitor of Gaussian, Inc. and that
 it will not use this program in any manner prohibited above.
 ---------------------------------------------------------------
  

 Cite this work as:
 Gaussian 09, Revision C.01,
 M. J. Frisch, G. W. Trucks, H. B. Schlegel, G. E. Scuseria, 
 M. A. Robb, J. R. Cheeseman, G. Scalmani, V. Barone, B. Mennucci, 
 G. A. Petersson, H. Nakatsuji, M. Caricato, X. Li, H. P. Hratchian, 
 A. F. Izmaylov, J. Bloino, G. Zheng, J. L. Sonnenberg, M. Hada, 
 M. Ehara, K. Toyota, R. Fukuda, J. Hasegawa, M. Ishida, T. Nakajima, 
 Y. Honda, O. Kitao, H. Nakai, T. Vreven, J. A. Montgomery, Jr., 
 J. E. Peralta, F. Ogliaro, M. Bearpark, J. J. Heyd, E. Brothers, 
 K. N. Kudin, V. N. Staroverov, T. Keith, R. Kobayashi, J. Normand, 
 K. Raghavachari, A. Rendell, J. C. Burant, S. S. Iyengar, J. Tomasi, 
 M. Cossi, N. Rega, J. M. Millam, M. Klene, J. E. Knox, J. B. Cross, 
 V. Bakken, C. Adamo, J. Jaramillo, R. Gomperts, R. E. Stratmann, 
 O. Yazyev, A. J. Austin, R. Cammi, C. Pomelli, J. W. Ochterski, 
 R. L. Martin, K. Morokuma, V. G. Zakrzewski, G. A. Voth, 
 P. Salvador, J. J. Dannenberg, S. Dapprich, A. D. Daniels, 
 O. Farkas, J. B. Foresman, J. V. Ortiz, J. Cioslowski, 
 and D. J. Fox, Gaussian, Inc., Wallingford CT, 2010.
 
 ******************************************
 Gaussian 09:  EM64L-G09RevC.01 23-Sep-2011
                24-Apr-2026 
 ******************************************
 %nprocshared=8
 Will use up to    8 processors via shared memory.
 %mem=14GB
 -----------------------------------
 # opt=modredundant b3lyp/6-31g(d,p)
 -----------------------------------
 1/14=-1,18=120,19=15,26=3,38=1/1,3;
 2/9=110,12=2,17=6,18=5,40=1/2;
 3/5=1,6=6,7=101,11=2,16=1,25=1,30=1,71=1,74=-5/1,2,3;
 4//1;
 5/5=2,38=5/2;
 6/7=2,8=2,9=2,10=2,28=1/1;
 7//1,2,3,16;
 1/14=-1,18=20,19=15/3(2);
 2/9=110/2;
 99//99;
 2/9=110/2;
 3/5=1,6=6,7=101,11=2,16=1,25=1,30=1,71=1,74=-5/1,2,3;
 4/5=5,16=3/1;
 5/5=2,38=5/2;
 7//1,2,3,16;
 1/14=-1,18=20,19=15/3(-5);
 2/9=110/2;
 6/7=2,8=2,9=2,10=2,19=2,28=1/1;
 99/9=1/99;
 ---------------
 QM dihedral opt
 ---------------
 Charge =  0 Multiplicity = 1
 Symbolic Z-Matrix:
 C                     1.77251   2.76904  -0.52077 
 C                     0.36776   2.36201  -0.1027 
 O                    -0.58628   3.11211  -0.29809 
 N                     0.20436   1.12154   0.48167 
 C                    -1.08959   0.83845   1.11385 
 C                    -1.58673  -0.5836    0.82729 
 O                    -1.4428   -1.45876   1.67951 
 N                    -2.16143  -0.82733  -0.39349 
 C                    -2.33392   0.1483   -1.46085 
 C                    -2.63535  -2.17158  -0.69194 
 H                     1.68167   3.668    -1.12934 
 H                     2.29043   1.99315  -1.09046 
 H                     2.38562   3.00213   0.35682 
 H                    -0.98441   0.88426   2.20314 
 H                    -1.78292   1.61613   0.79862 
 H                    -1.94005   1.12597  -1.19055 
 H                    -1.81518  -0.18929  -2.36754 
 H                    -3.398     0.25786  -1.70686 
 H                    -2.09369  -2.59103  -1.5496 
 H                    -2.47262  -2.79747   0.18359 
 H                    -3.70388  -2.15278  -0.93892 
 C                     1.32458   0.24586   0.84139 
 H                     2.22818   0.83133   1.02532 
 H                     1.07403  -0.26738   1.77326 
 C                     1.63438  -0.80572  -0.22727 
 H                     1.78771  -0.32298  -1.20809 
 H                     0.78878  -1.50224  -0.33232 
 O                     2.80129  -1.48365   0.18964 
 C                     3.15889  -2.54688  -0.66875 
 H                     4.06305  -3.00347  -0.25989 
 H                     2.36787  -3.31043  -0.72376 
 H                     3.36993  -2.19405  -1.69074 
 
 The following ModRedundant input section has been read:
 D       2       4       5       6 F                                           
 D       4       5       6       8 S  36 10.000                                

 GradGradGradGradGradGradGradGradGradGradGradGradGradGradGradGradGradGrad
 Berny optimization.
 Initialization pass.
                           ----------------------------
                           !    Initial Parameters    !
                           ! (Angstroms and Degrees)  !
 --------------------------                            --------------------------
 ! Name  Definition              Value          Derivative Info.                !
 --------------------------------------------------------------------------------
 ! R1    R(1,2)                  1.5211         estimate D2E/DX2                !
 ! R2    R(1,11)                 1.0894         estimate D2E/DX2                !
 ! R3    R(1,12)                 1.0931         estimate D2E/DX2                !
 ! R4    R(1,13)                 1.0956         estimate D2E/DX2                !
 ! R5    R(2,3)                  1.2292         estimate D2E/DX2                !
 ! R6    R(2,4)                  1.3809         estimate D2E/DX2                !
 ! R7    R(4,5)                  1.4677         estimate D2E/DX2                !
 ! R8    R(4,22)                 1.4667         estimate D2E/DX2                !
 ! R9    R(5,6)                  1.5335         estimate D2E/DX2                !
 ! R10   R(5,14)                 1.0953         estimate D2E/DX2                !
 ! R11   R(5,15)                 1.0885         estimate D2E/DX2                !
 ! R12   R(6,7)                  1.23           estimate D2E/DX2                !
 ! R13   R(6,8)                  1.3711         estimate D2E/DX2                !
 ! R14   R(8,9)                  1.4563         estimate D2E/DX2                !
 ! R15   R(8,10)                 1.4563         estimate D2E/DX2                !
 ! R16   R(9,16)                 1.0881         estimate D2E/DX2                !
 ! R17   R(9,17)                 1.0978         estimate D2E/DX2                !
 ! R18   R(9,18)                 1.0976         estimate D2E/DX2                !
 ! R19   R(10,19)                1.0977         estimate D2E/DX2                !
 ! R20   R(10,20)                1.0885         estimate D2E/DX2                !
 ! R21   R(10,21)                1.0969         estimate D2E/DX2                !
 ! R22   R(22,23)                1.0923         estimate D2E/DX2                !
 ! R23   R(22,24)                1.093          estimate D2E/DX2                !
 ! R24   R(22,25)                1.531          estimate D2E/DX2                !
 ! R25   R(25,26)                1.1039         estimate D2E/DX2                !
 ! R26   R(25,27)                1.1005         estimate D2E/DX2                !
 ! R27   R(25,28)                1.4125         estimate D2E/DX2                !
 ! R28   R(28,29)                1.4125         estimate D2E/DX2                !
 ! R29   R(29,30)                1.0923         estimate D2E/DX2                !
 ! R30   R(29,31)                1.1008         estimate D2E/DX2                !
 ! R31   R(29,32)                1.1016         estimate D2E/DX2                !
 ! A1    A(2,1,11)             107.2984         estimate D2E/DX2                !
 ! A2    A(2,1,12)             113.0092         estimate D2E/DX2                !
 ! A3    A(2,1,13)             110.7057         estimate D2E/DX2                !
 ! A4    A(11,1,12)            109.5191         estimate D2E/DX2                !
 ! A5    A(11,1,13)            108.5763         estimate D2E/DX2                !
 ! A6    A(12,1,13)            107.6575         estimate D2E/DX2                !
 ! A7    A(1,2,3)              120.649          estimate D2E/DX2                !
 ! A8    A(1,2,4)              117.7723         estimate D2E/DX2                !
 ! A9    A(3,2,4)              121.5723         estimate D2E/DX2                !
 ! A10   A(2,4,5)              117.3784         estimate D2E/DX2                !
 ! A11   A(2,4,22)             123.3492         estimate D2E/DX2                !
 ! A12   A(5,4,22)             116.9083         estimate D2E/DX2                !
 ! A13   A(4,5,6)              112.5941         estimate D2E/DX2                !
 ! A14   A(4,5,14)             109.6118         estimate D2E/DX2                !
 ! A15   A(4,5,15)             107.3978         estimate D2E/DX2                !
 ! A16   A(6,5,14)             104.819          estimate D2E/DX2                !
 ! A17   A(6,5,15)             113.6981         estimate D2E/DX2                !
 ! A18   A(14,5,15)            108.6196         estimate D2E/DX2                !
 ! A19   A(5,6,7)              119.4987         estimate D2E/DX2                !
 ! A20   A(5,6,8)              117.847          estimate D2E/DX2                !
 ! A21   A(7,6,8)              122.6469         estimate D2E/DX2                !
 ! A22   A(6,8,9)              125.6698         estimate D2E/DX2                !
 ! A23   A(6,8,10)             118.879          estimate D2E/DX2                !
 ! A24   A(9,8,10)             115.4452         estimate D2E/DX2                !
 ! A25   A(8,9,16)             112.1473         estimate D2E/DX2                !
 ! A26   A(8,9,17)             110.0814         estimate D2E/DX2                !
 ! A27   A(8,9,18)             110.2405         estimate D2E/DX2                !
 ! A28   A(16,9,17)            108.0844         estimate D2E/DX2                !
 ! A29   A(16,9,18)            108.4751         estimate D2E/DX2                !
 ! A30   A(17,9,18)            107.6781         estimate D2E/DX2                !
 ! A31   A(8,10,19)            110.6263         estimate D2E/DX2                !
 ! A32   A(8,10,20)            108.499          estimate D2E/DX2                !
 ! A33   A(8,10,21)            110.3259         estimate D2E/DX2                !
 ! A34   A(19,10,20)           109.5709         estimate D2E/DX2                !
 ! A35   A(19,10,21)           108.1392         estimate D2E/DX2                !
 ! A36   A(20,10,21)           109.6708         estimate D2E/DX2                !
 ! A37   A(4,22,23)            110.6782         estimate D2E/DX2                !
 ! A38   A(4,22,24)            108.3246         estimate D2E/DX2                !
 ! A39   A(4,22,25)            113.1701         estimate D2E/DX2                !
 ! A40   A(23,22,24)           107.3233         estimate D2E/DX2                !
 ! A41   A(23,22,25)           108.561          estimate D2E/DX2                !
 ! A42   A(24,22,25)           108.6013         estimate D2E/DX2                !
 ! A43   A(22,25,26)           110.361          estimate D2E/DX2                !
 ! A44   A(22,25,27)           110.2345         estimate D2E/DX2                !
 ! A45   A(22,25,28)           106.9069         estimate D2E/DX2                !
 ! A46   A(26,25,27)           107.3783         estimate D2E/DX2                !
 ! A47   A(26,25,28)           110.9405         estimate D2E/DX2                !
 ! A48   A(27,25,28)           111.0502         estimate D2E/DX2                !
 ! A49   A(25,28,29)           113.0199         estimate D2E/DX2                !
 ! A50   A(28,29,30)           107.2611         estimate D2E/DX2                !
 ! A51   A(28,29,31)           111.7507         estimate D2E/DX2                !
 ! A52   A(28,29,32)           111.7903         estimate D2E/DX2                !
 ! A53   A(30,29,31)           108.8798         estimate D2E/DX2                !
 ! A54   A(30,29,32)           108.8177         estimate D2E/DX2                !
 ! A55   A(31,29,32)           108.2681         estimate D2E/DX2                !
 ! D1    D(11,1,2,3)           -10.1046         estimate D2E/DX2                !
 ! D2    D(11,1,2,4)           168.9973         estimate D2E/DX2                !
 ! D3    D(12,1,2,3)          -130.9318         estimate D2E/DX2                !
 ! D4    D(12,1,2,4)            48.1701         estimate D2E/DX2                !
 ! D5    D(13,1,2,3)           108.2167         estimate D2E/DX2                !
 ! D6    D(13,1,2,4)           -72.6814         estimate D2E/DX2                !
 ! D7    D(1,2,4,5)            168.4922         estimate D2E/DX2                !
 ! D8    D(1,2,4,22)             6.5157         estimate D2E/DX2                !
 ! D9    D(3,2,4,5)            -12.4147         estimate D2E/DX2                !
 ! D10   D(3,2,4,22)          -174.3912         estimate D2E/DX2                !
 ! D11   D(2,4,5,6)            138.6698         Frozen                          !
 ! D12   D(2,4,5,14)          -105.0753         estimate D2E/DX2                !
 ! D13   D(2,4,5,15)            12.7543         estimate D2E/DX2                !
 ! D14   D(22,4,5,6)           -58.1785         estimate D2E/DX2                !
 ! D15   D(22,4,5,14)           58.0764         estimate D2E/DX2                !
 ! D16   D(22,4,5,15)          175.906          estimate D2E/DX2                !
 ! D17   D(2,4,22,23)           26.0317         estimate D2E/DX2                !
 ! D18   D(2,4,22,24)          143.4362         estimate D2E/DX2                !
 ! D19   D(2,4,22,25)          -96.0832         estimate D2E/DX2                !
 ! D20   D(5,4,22,23)         -136.0231         estimate D2E/DX2                !
 ! D21   D(5,4,22,24)          -18.6185         estimate D2E/DX2                !
 ! D22   D(5,4,22,25)          101.8621         estimate D2E/DX2                !
 ! D23   D(4,5,6,7)            100.2748         estimate D2E/DX2                !
 ! D24   D(4,5,6,8)            -78.7571         Scan                            !
 ! D25   D(14,5,6,7)           -18.8131         estimate D2E/DX2                !
 ! D26   D(14,5,6,8)           162.155          estimate D2E/DX2                !
 ! D27   D(15,5,6,7)          -137.2903         estimate D2E/DX2                !
 ! D28   D(15,5,6,8)            43.6778         estimate D2E/DX2                !
 ! D29   D(5,6,8,9)              0.6284         estimate D2E/DX2                !
 ! D30   D(5,6,8,10)           179.6964         estimate D2E/DX2                !
 ! D31   D(7,6,8,9)           -178.3709         estimate D2E/DX2                !
 ! D32   D(7,6,8,10)             0.6971         estimate D2E/DX2                !
 ! D33   D(6,8,9,16)             0.5195         estimate D2E/DX2                !
 ! D34   D(6,8,9,17)           120.8932         estimate D2E/DX2                !
 ! D35   D(6,8,9,18)          -120.4602         estimate D2E/DX2                !
 ! D36   D(10,8,9,16)         -178.5768         estimate D2E/DX2                !
 ! D37   D(10,8,9,17)          -58.2031         estimate D2E/DX2                !
 ! D38   D(10,8,9,18)           60.4435         estimate D2E/DX2                !
 ! D39   D(6,8,10,19)         -118.1497         estimate D2E/DX2                !
 ! D40   D(6,8,10,20)            2.0724         estimate D2E/DX2                !
 ! D41   D(6,8,10,21)          122.2354         estimate D2E/DX2                !
 ! D42   D(9,8,10,19)           61.0119         estimate D2E/DX2                !
 ! D43   D(9,8,10,20)         -178.7661         estimate D2E/DX2                !
 ! D44   D(9,8,10,21)          -58.603          estimate D2E/DX2                !
 ! D45   D(4,22,25,26)          53.7348         estimate D2E/DX2                !
 ! D46   D(4,22,25,27)         -64.7117         estimate D2E/DX2                !
 ! D47   D(4,22,25,28)         174.4815         estimate D2E/DX2                !
 ! D48   D(23,22,25,26)        -69.5556         estimate D2E/DX2                !
 ! D49   D(23,22,25,27)        171.9979         estimate D2E/DX2                !
 ! D50   D(23,22,25,28)         51.1911         estimate D2E/DX2                !
 ! D51   D(24,22,25,26)        174.058          estimate D2E/DX2                !
 ! D52   D(24,22,25,27)         55.6114         estimate D2E/DX2                !
 ! D53   D(24,22,25,28)        -65.1954         estimate D2E/DX2                !
 ! D54   D(22,25,28,29)        176.2844         estimate D2E/DX2                !
 ! D55   D(26,25,28,29)        -63.3389         estimate D2E/DX2                !
 ! D56   D(27,25,28,29)         55.9983         estimate D2E/DX2                !
 ! D57   D(25,28,29,30)       -179.8021         estimate D2E/DX2                !
 ! D58   D(25,28,29,31)        -60.5411         estimate D2E/DX2                !
 ! D59   D(25,28,29,32)         60.9899         estimate D2E/DX2                !
 --------------------------------------------------------------------------------
 Trust Radius=3.00D-01 FncErr=1.00D-07 GrdErr=1.00D-06
 Number of optimizations in scan=  37
 Number of steps in this run=    155 maximum allowed number of steps=    192.
 GradGradGradGradGradGradGradGradGradGradGradGradGradGradGradGradGradGrad

                          Input orientation:                          
 ---------------------------------------------------------------------
 Center     Atomic      Atomic             Coordinates (Angstroms)
 Number     Number       Type             X           Y           Z
 ---------------------------------------------------------------------
      1          6           0        1.772510    2.769040   -0.520774
      2          6           0        0.367764    2.362005   -0.102701
      3          8           0       -0.586281    3.112108   -0.298086
      4          7           0        0.204361    1.121543    0.481666
      5          6           0       -1.089587    0.838448    1.113854
      6          6           0       -1.586733   -0.583600    0.827291
      7          8           0       -1.442798   -1.458761    1.679511
      8          7           0       -2.161426   -0.827328   -0.393489
      9          6           0       -2.333916    0.148295   -1.460847
     10          6           0       -2.635350   -2.171576   -0.691938
     11          1           0        1.681668    3.667998   -1.129337
     12          1           0        2.290432    1.993147   -1.090459
     13          1           0        2.385623    3.002134    0.356819
     14          1           0       -0.984414    0.884264    2.203137
     15          1           0       -1.782919    1.616129    0.798619
     16          1           0       -1.940045    1.125968   -1.190554
     17          1           0       -1.815180   -0.189292   -2.367537
     18          1           0       -3.397995    0.257859   -1.706855
     19          1           0       -2.093690   -2.591029   -1.549600
     20          1           0       -2.472616   -2.797468    0.183589
     21          1           0       -3.703880   -2.152777   -0.938915
     22          6           0        1.324578    0.245862    0.841388
     23          1           0        2.228176    0.831334    1.025324
     24          1           0        1.074032   -0.267382    1.773255
     25          6           0        1.634381   -0.805724   -0.227268
     26          1           0        1.787712   -0.322975   -1.208087
     27          1           0        0.788781   -1.502239   -0.332322
     28          8           0        2.801294   -1.483651    0.189644
     29          6           0        3.158887   -2.546881   -0.668749
     30          1           0        4.063052   -3.003466   -0.259894
     31          1           0        2.367865   -3.310431   -0.723764
     32          1           0        3.369927   -2.194054   -1.690743
 ---------------------------------------------------------------------
                    Distance matrix (angstroms):
                    1          2          3          4          5
     1  C    0.000000
     2  C    1.521109   0.000000
     3  O    2.393988   1.229240   0.000000
     4  N    2.485603   1.380917   2.279359   0.000000
     5  C    3.819790   2.434154   2.723311   1.467687   0.000000
     6  C    4.933760   3.655343   3.990694   2.496996   1.533458
     7  O    5.749240   4.588319   5.053450   3.287238   2.392048
     8  N    5.331596   4.080834   4.243741   3.187623   2.489123
     9  C    4.961328   3.747552   3.631863   3.341170   2.941726
    10  C    6.623308   5.469849   5.680768   4.503991   3.835429
    11  H    1.089370   2.118004   2.478626   3.355920   4.551715
    12  H    1.093066   2.192801   3.186755   2.753718   4.197244
    13  H    1.095632   2.166259   3.045194   2.882727   4.163139
    14  H    4.309606   3.054340   3.373117   2.105457   1.095307
    15  H    3.963720   2.448295   2.207410   2.072283   1.088517
    16  H    4.114773   2.834995   2.563967   2.719341   2.473104
    17  H    5.003377   4.050166   4.085592   3.730254   3.701732
    18  H    5.869152   4.602356   4.247011   4.302620   3.690831
    19  H    6.688522   5.717064   6.030285   4.815628   4.456851
    20  H    7.035853   5.896599   6.222006   4.755387   3.999756
    21  H    7.374956   6.136839   6.152162   5.292785   4.471668
    22  C    2.902164   2.506962   3.628381   1.466664   2.500718
    23  H    2.520467   2.660174   3.856749   2.115564   3.318952
    24  H    3.869147   3.306312   4.297446   2.086538   2.517721
    25  C    3.589452   3.413846   4.503972   2.502379   3.452812
    26  H    3.167521   3.232220   4.273610   2.729267   3.875456
    27  H    4.387147   3.893888   4.814994   2.808622   3.331442
    28  O    4.432660   4.560329   5.730144   3.690037   4.624420
    29  C    5.495721   5.675204   6.796163   4.848713   5.717312
    30  H    6.215824   6.516759   7.682317   5.696938   6.572456
    31  H    6.111924   6.046706   7.082174   5.077027   5.704736
    32  H    5.343489   5.682652   6.763611   5.072805   6.078577
                    6          7          8          9         10
     6  C    0.000000
     7  O    1.230001   0.000000
     8  N    1.371123   2.283082   0.000000
     9  C    2.515855   3.638484   1.456313   0.000000
    10  C    2.435020   2.748464   1.456255   2.462496   0.000000
    11  H    5.708496   6.628391   5.959765   5.350058   7.275204
    12  H    5.034858   5.790113   5.316003   4.992520   6.462744
    13  H    5.372006   6.025438   5.991944   5.807095   7.285419
    14  H    2.100087   2.444190   3.325263   3.973359   4.521638
    15  H    2.208646   3.216613   2.744972   2.750149   4.158739
    16  H    2.668174   3.894272   2.121247   1.088135   3.406738
    17  H    3.227165   4.257795   2.103293   1.097788   2.722088
    18  H    3.226549   4.270486   2.105152   1.097629   2.741138
    19  H    3.152204   3.483224   2.109934   2.751269   1.097689
    20  H    2.469889   2.256201   2.076369   3.376526   1.088472
    21  H    3.172398   3.528499   2.105580   2.728396   1.096863
    22  C    3.027200   3.356570   3.850829   4.323700   4.886320
    23  H    4.073670   4.375905   4.902326   5.240255   5.968278
    24  H    2.841569   2.786145   3.934019   4.716600   4.843826
    25  C    3.396617   3.678491   3.799506   4.263713   4.506892
    26  H    3.949376   4.479333   4.063697   4.156176   4.821536
    27  H    2.798512   3.004881   3.027039   3.707974   3.507422
    28  O    4.524540   4.498071   5.039781   5.635401   5.550453
    29  C    5.349160   5.279568   5.598068   6.169463   5.806425
    30  H    6.241618   6.038360   6.595267   7.231672   6.763674
    31  H    5.047794   4.870890   5.175844   5.883266   5.131293
    32  H    5.788137   5.921283   5.843516   6.170355   6.087813
                   11         12         13         14         15
    11  H    0.000000
    12  H    1.782479   0.000000
    13  H    1.774144   1.766842   0.000000
    14  H    5.095346   4.775145   4.387643   0.000000
    15  H    4.464364   4.505879   4.415081   1.773671   0.000000
    16  H    4.425208   4.319601   4.962435   3.533948   2.054691
    17  H    5.351614   4.821827   5.937513   4.767993   3.644877
    18  H    6.145368   5.979078   6.726071   4.637434   3.275785
    19  H    7.321569   6.359717   7.414995   5.233659   4.828135
    20  H    7.796416   6.874578   7.567554   4.455162   4.509300
    21  H    7.932327   7.289954   8.082950   5.147000   4.573157
    22  C    3.965134   2.778113   2.992935   2.755605   3.396469
    23  H    3.603873   2.414585   2.276853   3.422102   4.093432
    24  H    4.927624   3.845839   3.796880   2.397559   3.558047
    25  C    4.564006   3.001530   3.924959   3.952343   4.312280
    26  H    3.993158   2.372970   3.723275   4.558350   4.531710
    27  H    5.306961   3.879104   4.828478   3.907451   4.197248
    28  O    5.434405   3.740022   4.508103   4.898241   5.567270
    29  C    6.404611   4.641542   5.695726   6.098150   6.626105
    30  H    7.136901   5.366392   6.265887   6.830657   7.525722
    31  H    7.023804   5.316804   6.404409   6.115553   6.619490
    32  H    6.126096   4.365582   5.671132   6.602926   6.875045
                   16         17         18         19         20
    16  H    0.000000
    17  H    1.769404   0.000000
    18  H    1.773640   1.772498   0.000000
    19  H    3.737457   2.552436   3.137213   0.000000
    20  H    4.191092   3.707162   3.710139   1.786098   0.000000
    21  H    3.731569   3.076268   2.548424   1.776995   1.786520
    22  C    3.944761   4.510503   5.366226   5.044733   4.910523
    23  H    4.729798   5.376050   6.280723   6.084515   5.997847
    24  H    4.450870   5.049733   5.690876   5.145402   4.637573
    25  C    4.175629   4.106119   5.352121   4.339861   4.582933
    26  H    3.999489   3.787219   5.241917   4.508434   5.119597
    27  H    3.884653   3.556198   4.745143   3.312985   3.546899
    28  O    5.585280   5.433817   6.712730   5.311509   5.435097
    29  C    6.305649   5.760681   7.206728   5.326107   5.701149
    30  H    7.345443   6.849478   8.270258   6.303881   6.553935
    31  H    6.201421   5.471870   6.851591   4.594020   4.951432
    32  H    6.282399   5.600219   7.198396   5.479838   6.165431
                   21         22         23         24         25
    21  H    0.000000
    22  C    5.848789   0.000000
    23  H    6.924770   1.092291   0.000000
    24  H    5.808530   1.092963   1.760291   0.000000
    25  C    5.551398   1.530959   2.145120   2.146135   0.000000
    26  H    5.794671   2.176790   2.552364   3.066077   1.103885
    27  H    4.579864   2.172678   3.059514   2.457579   1.100549
    28  O    6.636163   2.365729   2.527050   2.640183   1.412475
    29  C    6.879381   3.666690   3.892100   3.937781   2.355982
    30  H    7.842829   4.389783   4.441199   4.533662   3.275603
    31  H    6.184864   4.023104   4.498115   4.143580   2.656702
    32  H    7.113768   4.067964   4.222983   4.580664   2.661079
                   26         27         28         29         30
    26  H    0.000000
    27  H    1.776370   0.000000
    28  O    2.080425   2.079183   0.000000
    29  C    2.667726   2.611870   1.412505   0.000000
    30  H    3.641603   3.602746   2.025822   1.092313   0.000000
    31  H    3.081564   2.432343   2.087894   1.100796   1.784114
    32  H    2.497458   2.997704   2.088988   1.101588   1.784068
                   31         32
    31  H    0.000000
    32  H    1.784790   0.000000
 Stoichiometry    C9H18N2O3
 Framework group  C1[X(C9H18N2O3)]
 Deg. of freedom    90
 Full point group                 C1      NOp   1
 Largest Abelian subgroup         C1      NOp   1
 Largest concise Abelian subgroup C1      NOp   1
                         Standard orientation:                         
 ---------------------------------------------------------------------
 Center     Atomic      Atomic             Coordinates (Angstroms)
 Number     Number       Type             X           Y           Z
 ---------------------------------------------------------------------
      1          6           0        1.772512    2.769039   -0.520774
      2          6           0        0.367765    2.362005   -0.102701
      3          8           0       -0.586279    3.112108   -0.298086
      4          7           0        0.204362    1.121543    0.481666
      5          6           0       -1.089586    0.838449    1.113854
      6          6           0       -1.586733   -0.583599    0.827291
      7          8           0       -1.442799   -1.458760    1.679511
      8          7           0       -2.161426   -0.827327   -0.393489
      9          6           0       -2.333916    0.148296   -1.460847
     10          6           0       -2.635351   -2.171574   -0.691938
     11          1           0        1.681670    3.667997   -1.129337
     12          1           0        2.290433    1.993146   -1.090459
     13          1           0        2.385625    3.002132    0.356819
     14          1           0       -0.984413    0.884265    2.203137
     15          1           0       -1.782918    1.616130    0.798619
     16          1           0       -1.940044    1.125969   -1.190554
     17          1           0       -1.815180   -0.189291   -2.367537
     18          1           0       -3.397995    0.257861   -1.706855
     19          1           0       -2.093692   -2.591028   -1.549600
     20          1           0       -2.472618   -2.797467    0.183589
     21          1           0       -3.703881   -2.152775   -0.938915
     22          6           0        1.324578    0.245861    0.841388
     23          1           0        2.228177    0.831333    1.025324
     24          1           0        1.074032   -0.267383    1.773255
     25          6           0        1.634381   -0.805725   -0.227268
     26          1           0        1.787712   -0.322976   -1.208087
     27          1           0        0.788780   -1.502240   -0.332322
     28          8           0        2.801293   -1.483653    0.189644
     29          6           0        3.158885   -2.546883   -0.668749
     30          1           0        4.063050   -3.003469   -0.259894
     31          1           0        2.367863   -3.310433   -0.723764
     32          1           0        3.369926   -2.194056   -1.690743
 ---------------------------------------------------------------------
 Rotational constants (GHZ):      0.6317371      0.5641560      0.3647269
 Standard basis: 6-31G(d,p) (6D, 7F)
 There are   300 symmetry adapted basis functions of A   symmetry.
 Integral buffers will be    131072 words long.
 Raffenetti 2 integral format.
 Two-electron integral symmetry is turned on.
   300 basis functions,   518 primitive gaussians,   300 cartesian basis functions
    55 alpha electrons       55 beta electrons
       nuclear repulsion energy       986.3185314067 Hartrees.
 NAtoms=   32 NActive=   32 NUniq=   32 SFac= 1.00D+00 NAtFMM=   60 NAOKFM=F Big=F
 One-electron integrals computed using PRISM.
 NBasis=   300 RedAO= T  NBF=   300
 NBsUse=   300 1.00D-06 NBFU=   300
 Harris functional with IExCor=  402 diagonalized for initial guess.
 ExpMin= 1.61D-01 ExpMax= 5.48D+03 ExpMxC= 8.25D+02 IAcc=1 IRadAn=         1 AccDes= 0.00D+00
 HarFok:  IExCor=  402 AccDes= 0.00D+00 IRadAn=         1 IDoV= 1
 ScaDFX=  1.000000  1.000000  1.000000  1.000000
 FoFCou: FMM=F IPFlag=           0 FMFlag=      100000 FMFlg1=           0
         NFxFlg=           0 DoJE=T BraDBF=F KetDBF=T FulRan=T
         Omega=  0.000000  0.000000  1.000000  0.000000  0.000000 ICntrl=     500 IOpCl=  0
         NMat0=    1 NMatS0=    1 NMatT0=    0 NMatD0=    1 NMtDS0=    0 NMtDT0=    0
         I1Cent=           4 NGrid=           0.
 Petite list used in FoFCou.
 Initial guess orbital symmetries:
       Occupied  (A) (A) (A) (A) (A) (A) (A) (A) (A) (A) (A) (A)
                 (A) (A) (A) (A) (A) (A) (A) (A) (A) (A) (A) (A)
                 (A) (A) (A) (A) (A) (A) (A) (A) (A) (A) (A) (A)
                 (A) (A) (A) (A) (A) (A) (A) (A) (A) (A) (A) (A)
                 (A) (A) (A) (A) (A) (A) (A)
       Virtual   (A) (A) (A) (A) (A) (A) (A) (A) (A) (A) (A) (A)
                 (A) (A) (A) (A) (A) (A) (A) (A) (A) (A) (A) (A)
                 (A) (A) (A) (A) (A) (A) (A) (A) (A) (A) (A) (A)
                 (A) (A) (A) (A) (A) (A) (A) (A) (A) (A) (A) (A)
                 (A) (A) (A) (A) (A) (A) (A) (A) (A) (A) (A) (A)
                 (A) (A) (A) (A) (A) (A) (A) (A) (A) (A) (A) (A)
                 (A) (A) (A) (A) (A) (A) (A) (A) (A) (A) (A) (A)
                 (A) (A) (A) (A) (A) (A) (A) (A) (A) (A) (A) (A)
                 (A) (A) (A) (A) (A) (A) (A) (A) (A) (A) (A) (A)
                 (A) (A) (A) (A) (A) (A) (A) (A) (A) (A) (A) (A)
                 (A) (A) (A) (A) (A) (A) (A) (A) (A) (A) (A) (A)
                 (A) (A) (A) (A) (A) (A) (A) (A) (A) (A) (A) (A)
                 (A) (A) (A) (A) (A) (A) (A) (A) (A) (A) (A) (A)
                 (A) (A) (A) (A) (A) (A) (A) (A) (A) (A) (A) (A)
                 (A) (A) (A) (A) (A) (A) (A) (A) (A) (A) (A) (A)
                 (A) (A) (A) (A) (A) (A) (A) (A) (A) (A) (A) (A)
                 (A) (A) (A) (A) (A) (A) (A) (A) (A) (A) (A) (A)
                 (A) (A) (A) (A) (A) (A) (A) (A) (A) (A) (A) (A)
                 (A) (A) (A) (A) (A) (A) (A) (A) (A) (A) (A) (A)
                 (A) (A) (A) (A) (A) (A) (A) (A) (A) (A) (A) (A)
                 (A) (A) (A) (A) (A)
 The electronic state of the initial guess is 1-A.
 Requested convergence on RMS density matrix=1.00D-08 within 128 cycles.
 Requested convergence on MAX density matrix=1.00D-06.
 Requested convergence on             energy=1.00D-06.
 No special actions if energy rises.
 Keep R1 ints in memory in canonical form, NReq=1033483274.
 Integral accuracy reduced to 1.0D-05 until final iterations.
 Initial convergence to 1.0D-05 achieved.  Increase integral accuracy.
 SCF Done:  E(RB3LYP) =  -688.996656906     A.U. after   14 cycles
             Convg  =    0.6933D-08             -V/T =  2.0093

 **********************************************************************

            Population analysis using the SCF density.

 **********************************************************************

 Orbital symmetries:
       Occupied  (A) (A) (A) (A) (A) (A) (A) (A) (A) (A) (A) (A)
                 (A) (A) (A) (A) (A) (A) (A) (A) (A) (A) (A) (A)
                 (A) (A) (A) (A) (A) (A) (A) (A) (A) (A) (A) (A)
                 (A) (A) (A) (A) (A) (A) (A) (A) (A) (A) (A) (A)
                 (A) (A) (A) (A) (A) (A) (A)
       Virtual   (A) (A) (A) (A) (A) (A) (A) (A) (A) (A) (A) (A)
                 (A) (A) (A) (A) (A) (A) (A) (A) (A) (A) (A) (A)
                 (A) (A) (A) (A) (A) (A) (A) (A) (A) (A) (A) (A)
                 (A) (A) (A) (A) (A) (A) (A) (A) (A) (A) (A) (A)
                 (A) (A) (A) (A) (A) (A) (A) (A) (A) (A) (A) (A)
                 (A) (A) (A) (A) (A) (A) (A) (A) (A) (A) (A) (A)
                 (A) (A) (A) (A) (A) (A) (A) (A) (A) (A) (A) (A)
                 (A) (A) (A) (A) (A) (A) (A) (A) (A) (A) (A) (A)
                 (A) (A) (A) (A) (A) (A) (A) (A) (A) (A) (A) (A)
                 (A) (A) (A) (A) (A) (A) (A) (A) (A) (A) (A) (A)
                 (A) (A) (A) (A) (A) (A) (A) (A) (A) (A) (A) (A)
                 (A) (A) (A) (A) (A) (A) (A) (A) (A) (A) (A) (A)
                 (A) (A) (A) (A) (A) (A) (A) (A) (A) (A) (A) (A)
                 (A) (A) (A) (A) (A) (A) (A) (A) (A) (A) (A) (A)
                 (A) (A) (A) (A) (A) (A) (A) (A) (A) (A) (A) (A)
                 (A) (A) (A) (A) (A) (A) (A) (A) (A) (A) (A) (A)
                 (A) (A) (A) (A) (A) (A) (A) (A) (A) (A) (A) (A)
                 (A) (A) (A) (A) (A) (A) (A) (A) (A) (A) (A) (A)
                 (A) (A) (A) (A) (A) (A) (A) (A) (A) (A) (A) (A)
                 (A) (A) (A) (A) (A) (A) (A) (A) (A) (A) (A) (A)
                 (A) (A) (A) (A) (A)
 The electronic state is 1-A.
 Alpha  occ. eigenvalues --  -19.15557 -19.11597 -19.11092 -14.37208 -14.36968
 Alpha  occ. eigenvalues --  -10.29206 -10.28536 -10.23892 -10.23308 -10.22701
 Alpha  occ. eigenvalues --  -10.22342 -10.22277 -10.21514 -10.19558  -1.04016
 Alpha  occ. eigenvalues --   -1.03661  -1.02970  -0.93777  -0.93210  -0.77427
 Alpha  occ. eigenvalues --   -0.75832  -0.72857  -0.71533  -0.68626  -0.67328
 Alpha  occ. eigenvalues --   -0.62580  -0.55925  -0.54543  -0.51997  -0.50128
 Alpha  occ. eigenvalues --   -0.48894  -0.48326  -0.47573  -0.46972  -0.46492
 Alpha  occ. eigenvalues --   -0.45020  -0.44220  -0.42284  -0.41875  -0.40978
 Alpha  occ. eigenvalues --   -0.40558  -0.40337  -0.40021  -0.39093  -0.38074
 Alpha  occ. eigenvalues --   -0.37515  -0.36930  -0.36003  -0.35486  -0.32620
 Alpha  occ. eigenvalues --   -0.26227  -0.25955  -0.25248  -0.24296  -0.23813
 Alpha virt. eigenvalues --    0.01393   0.02206   0.07227   0.08859   0.09011
 Alpha virt. eigenvalues --    0.11841   0.12743   0.13034   0.13221   0.14305
 Alpha virt. eigenvalues --    0.14594   0.15257   0.15909   0.16151   0.16450
 Alpha virt. eigenvalues --    0.16813   0.17046   0.17787   0.18447   0.18772
 Alpha virt. eigenvalues --    0.20219   0.20687   0.21595   0.22028   0.22277
 Alpha virt. eigenvalues --    0.22839   0.25550   0.27883   0.28207   0.32711
 Alpha virt. eigenvalues --    0.35457   0.36684   0.41267   0.46484   0.48127
 Alpha virt. eigenvalues --    0.49573   0.49882   0.50681   0.51656   0.53230
 Alpha virt. eigenvalues --    0.53756   0.55242   0.55905   0.57114   0.58100
 Alpha virt. eigenvalues --    0.59129   0.60354   0.61512   0.64683   0.65093
 Alpha virt. eigenvalues --    0.65807   0.67133   0.68341   0.69699   0.71177
 Alpha virt. eigenvalues --    0.72735   0.74031   0.75202   0.75840   0.76597
 Alpha virt. eigenvalues --    0.78326   0.79150   0.80582   0.81233   0.82293
 Alpha virt. eigenvalues --    0.83498   0.83949   0.84432   0.85595   0.86125
 Alpha virt. eigenvalues --    0.86885   0.87917   0.88880   0.89046   0.90111
 Alpha virt. eigenvalues --    0.91385   0.92264   0.93593   0.94059   0.94950
 Alpha virt. eigenvalues --    0.95556   0.97329   0.98267   0.98860   0.99660
 Alpha virt. eigenvalues --    1.01685   1.04291   1.05521   1.08504   1.11290
 Alpha virt. eigenvalues --    1.12333   1.15860   1.17668   1.20142   1.23084
 Alpha virt. eigenvalues --    1.26788   1.27412   1.28652   1.29909   1.31939
 Alpha virt. eigenvalues --    1.34940   1.36757   1.37310   1.38756   1.39313
 Alpha virt. eigenvalues --    1.42215   1.44447   1.46958   1.48374   1.50898
 Alpha virt. eigenvalues --    1.57994   1.59031   1.59845   1.60115   1.64612
 Alpha virt. eigenvalues --    1.67053   1.70089   1.72220   1.72568   1.73984
 Alpha virt. eigenvalues --    1.75283   1.77421   1.78534   1.81719   1.82558
 Alpha virt. eigenvalues --    1.83707   1.84134   1.86419   1.87294   1.87824
 Alpha virt. eigenvalues --    1.88997   1.89521   1.91370   1.93433   1.94474
 Alpha virt. eigenvalues --    1.96340   1.96916   1.97160   1.97722   2.00392
 Alpha virt. eigenvalues --    2.00654   2.01926   2.02660   2.02835   2.02923
 Alpha virt. eigenvalues --    2.03848   2.04287   2.04636   2.05298   2.06754
 Alpha virt. eigenvalues --    2.08212   2.09331   2.09517   2.10450   2.10799
 Alpha virt. eigenvalues --    2.12292   2.13254   2.16660   2.17463   2.21631
 Alpha virt. eigenvalues --    2.23494   2.24203   2.27379   2.28462   2.29305
 Alpha virt. eigenvalues --    2.30695   2.33170   2.34530   2.38069   2.41098
 Alpha virt. eigenvalues --    2.41650   2.44104   2.45749   2.48462   2.50600
 Alpha virt. eigenvalues --    2.51639   2.52402   2.54381   2.54793   2.57466
 Alpha virt. eigenvalues --    2.58551   2.59913   2.61939   2.62628   2.63100
 Alpha virt. eigenvalues --    2.64402   2.66632   2.68191   2.68408   2.70140
 Alpha virt. eigenvalues --    2.71442   2.72648   2.73760   2.74721   2.79649
 Alpha virt. eigenvalues --    2.80510   2.82608   2.83574   2.84112   2.85658
 Alpha virt. eigenvalues --    2.87278   2.88680   2.89224   2.90373   2.91627
 Alpha virt. eigenvalues --    2.96338   2.97808   2.99441   3.05029   3.06763
 Alpha virt. eigenvalues --    3.10844   3.11780   3.15669   3.17222   3.17957
 Alpha virt. eigenvalues --    3.23163   3.25017   3.27087   3.34598   3.36286
 Alpha virt. eigenvalues --    3.38188   3.38484   3.42189   3.42738   3.43442
 Alpha virt. eigenvalues --    3.43612   3.43950   3.45672   3.49238   3.51243
 Alpha virt. eigenvalues --    3.55146   3.94941   4.02112   4.05568   4.09427
 Alpha virt. eigenvalues --    4.19022   4.31095   4.38717   4.40287   4.44988
 Alpha virt. eigenvalues --    4.50494   4.53208   4.64200   4.70058   4.73302
          Condensed to atoms (all electrons):
              1          2          3          4          5          6
     1  C    5.137636   0.355735  -0.077415  -0.117594   0.005344  -0.000094
     2  C    0.355735   4.378707   0.555608   0.266309  -0.024274   0.000745
     3  O   -0.077415   0.555608   8.103863  -0.098103  -0.009166   0.000192
     4  N   -0.117594   0.266309  -0.098103   7.122028   0.267469  -0.044891
     5  C    0.005344  -0.024274  -0.009166   0.267469   5.047621   0.329275
     6  C   -0.000094   0.000745   0.000192  -0.044891   0.329275   4.442034
     7  O    0.000000  -0.000122  -0.000002  -0.001649  -0.077028   0.542912
     8  N    0.000003   0.000424   0.000151   0.002995  -0.107699   0.278308
     9  C   -0.000124  -0.000931  -0.005707   0.004995   0.000751  -0.026449
    10  C    0.000000  -0.000006   0.000000  -0.000222   0.005785  -0.029989
    11  H    0.368245  -0.022838   0.004854   0.004549  -0.000106   0.000003
    12  H    0.360978  -0.022850   0.001990   0.002142  -0.000045   0.000007
    13  H    0.365654  -0.021410   0.000822   0.001297  -0.000272  -0.000008
    14  H   -0.000096   0.001526   0.001023  -0.040065   0.365881  -0.035063
    15  H    0.001263  -0.006887   0.021584  -0.038134   0.361021  -0.022191
    16  H    0.000354   0.003536   0.018744  -0.009965   0.005340  -0.006326
    17  H    0.000009   0.000156   0.000004   0.000000  -0.000169   0.001444
    18  H    0.000000  -0.000013   0.000008   0.000176  -0.000386  -0.000493
    19  H    0.000000   0.000001   0.000000   0.000025  -0.000140   0.001481
    20  H    0.000000   0.000001   0.000000  -0.000018   0.001035  -0.003450
    21  H    0.000000   0.000000   0.000000  -0.000002  -0.000174   0.000963
    22  C    0.001288  -0.027684   0.002383   0.229359  -0.037200   0.000091
    23  H    0.006458  -0.008927   0.000118  -0.032392   0.002826   0.000132
    24  H   -0.000222   0.002329  -0.000092  -0.031145  -0.004974  -0.002925
    25  C   -0.002090  -0.000520  -0.000012  -0.048428  -0.000616  -0.000787
    26  H   -0.001230   0.001624  -0.000064   0.003331   0.000366  -0.000162
    27  H    0.000081  -0.000051   0.000002   0.001684  -0.000806   0.005374
    28  O   -0.000005   0.000024   0.000000   0.002034  -0.000018  -0.000043
    29  C    0.000002  -0.000003   0.000000  -0.000121   0.000001  -0.000002
    30  H    0.000000   0.000000   0.000000   0.000001   0.000000   0.000000
    31  H    0.000000   0.000000   0.000000   0.000006  -0.000001  -0.000002
    32  H   -0.000002   0.000000   0.000000   0.000013   0.000000   0.000000
              7          8          9         10         11         12
     1  C    0.000000   0.000003  -0.000124   0.000000   0.368245   0.360978
     2  C   -0.000122   0.000424  -0.000931  -0.000006  -0.022838  -0.022850
     3  O   -0.000002   0.000151  -0.005707   0.000000   0.004854   0.001990
     4  N   -0.001649   0.002995   0.004995  -0.000222   0.004549   0.002142
     5  C   -0.077028  -0.107699   0.000751   0.005785  -0.000106  -0.000045
     6  C    0.542912   0.278308  -0.026449  -0.029989   0.000003   0.000007
     7  O    8.125101  -0.095739   0.002781  -0.012928   0.000000   0.000000
     8  N   -0.095739   7.005438   0.289939   0.292221   0.000000  -0.000002
     9  C    0.002781   0.289939   4.844344  -0.051263   0.000001   0.000035
    10  C   -0.012928   0.292221  -0.051263   4.826460   0.000000   0.000000
    11  H    0.000000   0.000000   0.000001   0.000000   0.544204  -0.023108
    12  H    0.000000  -0.000002   0.000035   0.000000  -0.023108   0.580282
    13  H    0.000000   0.000000  -0.000001   0.000000  -0.021429  -0.028761
    14  H    0.004405   0.005236   0.000494  -0.000163   0.000000  -0.000010
    15  H    0.002658   0.001074  -0.004231  -0.000196  -0.000031  -0.000033
    16  H    0.000008  -0.024471   0.371251   0.004106  -0.000001  -0.000092
    17  H   -0.000023  -0.045583   0.382272  -0.002612  -0.000001  -0.000002
    18  H   -0.000052  -0.044546   0.382269  -0.002410   0.000000   0.000000
    19  H    0.000729  -0.045166  -0.001917   0.383699   0.000000   0.000000
    20  H    0.024832  -0.035924   0.004289   0.383013   0.000000   0.000000
    21  H    0.000643  -0.044400  -0.001469   0.386781   0.000000   0.000000
    22  C    0.000386  -0.001716  -0.000426   0.000034   0.000290  -0.001423
    23  H    0.000072  -0.000017   0.000008   0.000000  -0.000008  -0.002391
    24  H    0.007783   0.000225   0.000004  -0.000009  -0.000010   0.000193
    25  C   -0.001629   0.001146   0.000143  -0.000120   0.000031  -0.000084
    26  H    0.000039  -0.000061   0.000076  -0.000004  -0.000042   0.004440
    27  H    0.001754  -0.000658   0.000111   0.000416   0.000000  -0.000075
    28  O    0.000000   0.000009   0.000001  -0.000001   0.000000  -0.000048
    29  C   -0.000001   0.000003   0.000000  -0.000001   0.000000  -0.000008
    30  H    0.000000   0.000000   0.000000   0.000000   0.000000   0.000000
    31  H   -0.000002  -0.000004   0.000000   0.000001   0.000000   0.000000
    32  H    0.000000   0.000000   0.000000   0.000000   0.000000   0.000006
             13         14         15         16         17         18
     1  C    0.365654  -0.000096   0.001263   0.000354   0.000009   0.000000
     2  C   -0.021410   0.001526  -0.006887   0.003536   0.000156  -0.000013
     3  O    0.000822   0.001023   0.021584   0.018744   0.000004   0.000008
     4  N    0.001297  -0.040065  -0.038134  -0.009965   0.000000   0.000176
     5  C   -0.000272   0.365881   0.361021   0.005340  -0.000169  -0.000386
     6  C   -0.000008  -0.035063  -0.022191  -0.006326   0.001444  -0.000493
     7  O    0.000000   0.004405   0.002658   0.000008  -0.000023  -0.000052
     8  N    0.000000   0.005236   0.001074  -0.024471  -0.045583  -0.044546
     9  C   -0.000001   0.000494  -0.004231   0.371251   0.382272   0.382269
    10  C    0.000000  -0.000163  -0.000196   0.004106  -0.002612  -0.002410
    11  H   -0.021429   0.000000  -0.000031  -0.000001  -0.000001   0.000000
    12  H   -0.028761  -0.000010  -0.000033  -0.000092  -0.000002   0.000000
    13  H    0.564782   0.000041  -0.000041   0.000004   0.000000   0.000000
    14  H    0.000041   0.589691  -0.025096  -0.000062  -0.000019   0.000026
    15  H   -0.000041  -0.025096   0.544771   0.000176   0.000171   0.000258
    16  H    0.000004  -0.000062   0.000176   0.533626  -0.026744  -0.026008
    17  H    0.000000  -0.000019   0.000171  -0.026744   0.620572  -0.047760
    18  H    0.000000   0.000026   0.000258  -0.026008  -0.047760   0.616472
    19  H    0.000000   0.000002  -0.000003  -0.000034   0.007014  -0.001806
    20  H    0.000000  -0.000028  -0.000037  -0.000198  -0.000065  -0.000052
    21  H    0.000000   0.000007  -0.000005   0.000021  -0.002017   0.006827
    22  C   -0.002422  -0.008155   0.004727   0.000164   0.000080  -0.000010
    23  H    0.002344   0.000598  -0.000171  -0.000007   0.000001   0.000000
    24  H    0.000154   0.005422   0.000403  -0.000037   0.000008   0.000000
    25  C    0.000065  -0.000207  -0.000196   0.000059  -0.000068   0.000005
    26  H    0.000089   0.000000   0.000018  -0.000026   0.000113   0.000000
    27  H   -0.000007   0.000127  -0.000011  -0.000028   0.000006   0.000006
    28  O   -0.000010   0.000006   0.000001   0.000000   0.000000   0.000000
    29  C    0.000000   0.000000   0.000000   0.000000   0.000000   0.000000
    30  H    0.000000   0.000000   0.000000   0.000000   0.000000   0.000000
    31  H    0.000000   0.000000   0.000000   0.000000   0.000000   0.000000
    32  H    0.000000   0.000000   0.000000   0.000000   0.000000   0.000000
             19         20         21         22         23         24
     1  C    0.000000   0.000000   0.000000   0.001288   0.006458  -0.000222
     2  C    0.000001   0.000001   0.000000  -0.027684  -0.008927   0.002329
     3  O    0.000000   0.000000   0.000000   0.002383   0.000118  -0.000092
     4  N    0.000025  -0.000018  -0.000002   0.229359  -0.032392  -0.031145
     5  C   -0.000140   0.001035  -0.000174  -0.037200   0.002826  -0.004974
     6  C    0.001481  -0.003450   0.000963   0.000091   0.000132  -0.002925
     7  O    0.000729   0.024832   0.000643   0.000386   0.000072   0.007783
     8  N   -0.045166  -0.035924  -0.044400  -0.001716  -0.000017   0.000225
     9  C   -0.001917   0.004289  -0.001469  -0.000426   0.000008   0.000004
    10  C    0.383699   0.383013   0.386781   0.000034   0.000000  -0.000009
    11  H    0.000000   0.000000   0.000000   0.000290  -0.000008  -0.000010
    12  H    0.000000   0.000000   0.000000  -0.001423  -0.002391   0.000193
    13  H    0.000000   0.000000   0.000000  -0.002422   0.002344   0.000154
    14  H    0.000002  -0.000028   0.000007  -0.008155   0.000598   0.005422
    15  H   -0.000003  -0.000037  -0.000005   0.004727  -0.000171   0.000403
    16  H   -0.000034  -0.000198   0.000021   0.000164  -0.000007  -0.000037
    17  H    0.007014  -0.000065  -0.002017   0.000080   0.000001   0.000008
    18  H   -0.001806  -0.000052   0.006827  -0.000010   0.000000   0.000000
    19  H    0.616712  -0.025566  -0.044304   0.000009   0.000000   0.000002
    20  H   -0.025566   0.515583  -0.023753   0.000001   0.000000  -0.000012
    21  H   -0.044304  -0.023753   0.606809  -0.000001   0.000000   0.000000
    22  C    0.000009   0.000001  -0.000001   4.931681   0.375762   0.374580
    23  H    0.000000   0.000000   0.000000   0.375762   0.600931  -0.027373
    24  H    0.000002  -0.000012   0.000000   0.374580  -0.027373   0.565048
    25  C   -0.000017  -0.000019   0.000003   0.363425  -0.047042  -0.041223
    26  H   -0.000002   0.000000   0.000000  -0.045982  -0.007145   0.006331
    27  H    0.000439   0.000076   0.000005  -0.034641   0.006529  -0.008246
    28  O   -0.000001   0.000000   0.000000  -0.040438   0.006501   0.004940
    29  C   -0.000001   0.000000   0.000000   0.004618  -0.000098  -0.000092
    30  H    0.000000   0.000000   0.000000  -0.000264   0.000007   0.000009
    31  H    0.000013   0.000000   0.000000   0.000071   0.000065  -0.000063
    32  H    0.000000   0.000000   0.000000  -0.000018  -0.000068   0.000038
             25         26         27         28         29         30
     1  C   -0.002090  -0.001230   0.000081  -0.000005   0.000002   0.000000
     2  C   -0.000520   0.001624  -0.000051   0.000024  -0.000003   0.000000
     3  O   -0.000012  -0.000064   0.000002   0.000000   0.000000   0.000000
     4  N   -0.048428   0.003331   0.001684   0.002034  -0.000121   0.000001
     5  C   -0.000616   0.000366  -0.000806  -0.000018   0.000001   0.000000
     6  C   -0.000787  -0.000162   0.005374  -0.000043  -0.000002   0.000000
     7  O   -0.001629   0.000039   0.001754   0.000000  -0.000001   0.000000
     8  N    0.001146  -0.000061  -0.000658   0.000009   0.000003   0.000000
     9  C    0.000143   0.000076   0.000111   0.000001   0.000000   0.000000
    10  C   -0.000120  -0.000004   0.000416  -0.000001  -0.000001   0.000000
    11  H    0.000031  -0.000042   0.000000   0.000000   0.000000   0.000000
    12  H   -0.000084   0.004440  -0.000075  -0.000048  -0.000008   0.000000
    13  H    0.000065   0.000089  -0.000007  -0.000010   0.000000   0.000000
    14  H   -0.000207   0.000000   0.000127   0.000006   0.000000   0.000000
    15  H   -0.000196   0.000018  -0.000011   0.000001   0.000000   0.000000
    16  H    0.000059  -0.000026  -0.000028   0.000000   0.000000   0.000000
    17  H   -0.000068   0.000113   0.000006   0.000000   0.000000   0.000000
    18  H    0.000005   0.000000   0.000006   0.000000   0.000000   0.000000
    19  H   -0.000017  -0.000002   0.000439  -0.000001  -0.000001   0.000000
    20  H   -0.000019   0.000000   0.000076   0.000000   0.000000   0.000000
    21  H    0.000003   0.000000   0.000005   0.000000   0.000000   0.000000
    22  C    0.363425  -0.045982  -0.034641  -0.040438   0.004618  -0.000264
    23  H   -0.047042  -0.007145   0.006529   0.006501  -0.000098   0.000007
    24  H   -0.041223   0.006331  -0.008246   0.004940  -0.000092   0.000009
    25  C    4.781257   0.358350   0.364395   0.229426  -0.034091   0.005352
    26  H    0.358350   0.697815  -0.058747  -0.039896  -0.005653  -0.000118
    27  H    0.364395  -0.058747   0.653570  -0.036290  -0.006484  -0.000082
    28  O    0.229426  -0.039896  -0.036290   8.207354   0.258996  -0.032855
    29  C   -0.034091  -0.005653  -0.006484   0.258996   4.706863   0.394931
    30  H    0.005352  -0.000118  -0.000082  -0.032855   0.394931   0.584153
    31  H   -0.008545  -0.002644   0.013287  -0.037565   0.371884  -0.034258
    32  H   -0.009438   0.012831  -0.002715  -0.037592   0.369165  -0.035279
             31         32
     1  C    0.000000  -0.000002
     2  C    0.000000   0.000000
     3  O    0.000000   0.000000
     4  N    0.000006   0.000013
     5  C   -0.000001   0.000000
     6  C   -0.000002   0.000000
     7  O   -0.000002   0.000000
     8  N   -0.000004   0.000000
     9  C    0.000000   0.000000
    10  C    0.000001   0.000000
    11  H    0.000000   0.000000
    12  H    0.000000   0.000006
    13  H    0.000000   0.000000
    14  H    0.000000   0.000000
    15  H    0.000000   0.000000
    16  H    0.000000   0.000000
    17  H    0.000000   0.000000
    18  H    0.000000   0.000000
    19  H    0.000013   0.000000
    20  H    0.000000   0.000000
    21  H    0.000000   0.000000
    22  C    0.000071  -0.000018
    23  H    0.000065  -0.000068
    24  H   -0.000063   0.000038
    25  C   -0.008545  -0.009438
    26  H   -0.002644   0.012831
    27  H    0.013287  -0.002715
    28  O   -0.037565  -0.037592
    29  C    0.371884   0.369165
    30  H   -0.034258  -0.035279
    31  H    0.653318  -0.052578
    32  H   -0.052578   0.666051
 Mulliken atomic charges:
              1
     1  C   -0.404177
     2  C    0.569793
     3  O   -0.520784
     4  N   -0.445684
     5  C   -0.129638
     6  C    0.569915
     7  O   -0.524930
     8  N   -0.431183
     9  C   -0.191246
    10  C   -0.182593
    11  H    0.145395
    12  H    0.128859
    13  H    0.139107
    14  H    0.134478
    15  H    0.159137
    16  H    0.156613
    17  H    0.113211
    18  H    0.117489
    19  H    0.108831
    20  H    0.160293
    21  H    0.114069
    22  C   -0.088570
    23  H    0.123287
    24  H    0.148954
    25  C    0.091475
    26  H    0.076351
    27  H    0.100980
    28  O   -0.484529
    29  C   -0.059908
    30  H    0.118403
    31  H    0.097016
    32  H    0.089587
 Sum of Mulliken atomic charges =   0.00000
 Mulliken charges with hydrogens summed into heavy atoms:
              1
     1  C    0.009185
     2  C    0.569793
     3  O   -0.520784
     4  N   -0.445684
     5  C    0.163977
     6  C    0.569915
     7  O   -0.524930
     8  N   -0.431183
     9  C    0.196066
    10  C    0.200600
    22  C    0.183671
    25  C    0.268805
    28  O   -0.484529
    29  C    0.245099
 Sum of Mulliken charges with hydrogens summed into heavy atoms =   0.00000
 Electronic spatial extent (au):  <R**2>=           3320.7318
 Charge=              0.0000 electrons
 Dipole moment (field-independent basis, Debye):
    X=              1.0937    Y=             -1.0885    Z=             -2.8674  Tot=              3.2562
 Quadrupole moment (field-independent basis, Debye-Ang):
   XX=            -79.3600   YY=            -91.8189   ZZ=            -86.1585
   XY=              3.7077   XZ=              1.9030   YZ=              8.8558
 Traceless Quadrupole moment (field-independent basis, Debye-Ang):
   XX=              6.4191   YY=             -6.0398   ZZ=             -0.3793
   XY=              3.7077   XZ=              1.9030   YZ=              8.8558
 Octapole moment (field-independent basis, Debye-Ang**2):
  XXX=            -12.4269  YYY=            -47.1321  ZZZ=             -3.7324  XYY=             30.4206
  XXY=             -6.1084  XXZ=            -16.0872  XZZ=              4.9530  YZZ=             10.3764
  YYZ=             -6.4560  XYZ=             -4.5058
 Hexadecapole moment (field-independent basis, Debye-Ang**3):
 XXXX=          -1966.7194 YYYY=          -1811.5690 ZZZZ=           -512.3761 XXXY=            -29.1426
 XXXZ=             -0.1631 YYYX=             29.5040 YYYZ=             21.2066 ZZZX=             11.8039
 ZZZY=              8.2158 XXYY=           -562.2994 XXZZ=           -419.9304 YYZZ=           -380.7597
 XXYZ=             28.6036 YYXZ=             -6.8911 ZZXY=            -14.0873
 N-N= 9.863185314067D+02 E-N=-3.578160977604D+03  KE= 6.826258720376D+02
 Calling FoFJK, ICntrl=      2127 FMM=F ISym2X=0 I1Cent= 0 IOpClX= 0 NMat=1 NMatS=1 NMatT=0.
 ***** Axes restored to original set *****
 -------------------------------------------------------------------
 Center     Atomic                   Forces (Hartrees/Bohr)
 Number     Number              X              Y              Z
 -------------------------------------------------------------------
      1        6           0.000000689    0.000001043   -0.000001316
      2        6          -0.001234626   -0.001302817   -0.003144372
      3        8           0.000001439   -0.000001636   -0.000006531
      4        7           0.001184757    0.002285592    0.003460296
      5        6           0.001532179   -0.002006037    0.002239404
      6        6          -0.001474586    0.001031896   -0.002558139
      7        8           0.000002420    0.000008919    0.000004128
      8        7          -0.000000255    0.000004686   -0.000000368
      9        6          -0.000001609   -0.000003512    0.000006157
     10        6          -0.000004059    0.000006473    0.000009570
     11        1           0.000002767   -0.000003929   -0.000010029
     12        1           0.000000401   -0.000005792   -0.000008305
     13        1           0.000006218   -0.000002682   -0.000011642
     14        1           0.000004754    0.000005196   -0.000001174
     15        1           0.000005587    0.000002543   -0.000001881
     16        1           0.000000055    0.000001577    0.000001781
     17        1          -0.000003086   -0.000000782    0.000002730
     18        1          -0.000001932    0.000002483    0.000004081
     19        1          -0.000004068   -0.000000848    0.000007691
     20        1          -0.000002252    0.000003794    0.000008969
     21        1          -0.000003496    0.000002953    0.000009582
     22        6           0.000008750   -0.000004315   -0.000001687
     23        1           0.000000745    0.000000914   -0.000004453
     24        1           0.000001936    0.000002256   -0.000000943
     25        6          -0.000005086    0.000004925   -0.000002280
     26        1          -0.000000986   -0.000004966   -0.000003557
     27        1          -0.000000055   -0.000003377    0.000004028
     28        8           0.000000314   -0.000000925    0.000001130
     29        6          -0.000003940   -0.000008533   -0.000004502
     30        1          -0.000004775   -0.000005314    0.000000293
     31        1          -0.000004373   -0.000003869    0.000001994
     32        1          -0.000003825   -0.000005915   -0.000000656
 -------------------------------------------------------------------
 Cartesian Forces:  Max     0.003460296 RMS     0.000742193

 GradGradGradGradGradGradGradGradGradGradGradGradGradGradGradGradGradGrad
 Berny optimization.
 Internal  Forces:  Max     0.003168144 RMS     0.000428052
 Search for a local minimum.
 Step number   1 out of a maximum of  155 on scan point     1 out of    37
 All quantities printed in internal units (Hartrees-Bohrs-Radians)
 Mixed Optimization -- En-DIIS/RFO-DIIS
 Second derivative matrix not updated -- first step.
 ITU=  0
     Eigenvalues ---    0.00356   0.00487   0.00768   0.00810   0.00947
     Eigenvalues ---    0.00948   0.01077   0.01128   0.01258   0.01526
     Eigenvalues ---    0.01527   0.01944   0.02074   0.02853   0.04115
     Eigenvalues ---    0.05401   0.05502   0.05880   0.06440   0.06914
     Eigenvalues ---    0.07235   0.07474   0.07490   0.07508   0.07649
     Eigenvalues ---    0.09450   0.09834   0.10039   0.10514   0.10801
     Eigenvalues ---    0.11055   0.12906   0.13578   0.16000   0.16000
     Eigenvalues ---    0.16000   0.16000   0.16000   0.16000   0.16000
     Eigenvalues ---    0.16000   0.16000   0.16000   0.16000   0.16000
     Eigenvalues ---    0.21931   0.21983   0.22019   0.23534   0.24263
     Eigenvalues ---    0.24996   0.24997   0.24997   0.24998   0.25000
     Eigenvalues ---    0.25000   0.25000   0.29106   0.29335   0.30260
     Eigenvalues ---    0.33256   0.33507   0.33594   0.33621   0.33928
     Eigenvalues ---    0.33939   0.33946   0.34031   0.34170   0.34206
     Eigenvalues ---    0.34461   0.34472   0.34547   0.34549   0.34886
     Eigenvalues ---    0.34985   0.34990   0.35029   0.36018   0.36142
     Eigenvalues ---    0.37430   0.37437   0.43609   0.43614   0.48935
     Eigenvalues ---    0.50761   0.91086   0.914041000.000001000.00000
     Eigenvalues --- 1000.000001000.000001000.000001000.000001000.00000
     Eigenvalues --- 1000.000001000.000001000.000001000.000001000.00000
     Eigenvalues --- 1000.000001000.000001000.000001000.000001000.00000
     Eigenvalues --- 1000.000001000.000001000.000001000.000001000.00000
     Eigenvalues --- 1000.000001000.000001000.000001000.000001000.00000
     Eigenvalues --- 1000.000001000.000001000.000001000.000001000.00000
     Eigenvalues --- 1000.000001000.000001000.000001000.000001000.00000
     Eigenvalues --- 1000.000001000.000001000.000001000.000001000.00000
     Eigenvalues --- 1000.000001000.000001000.000001000.000001000.00000
     Eigenvalues --- 1000.000001000.000001000.000001000.000001000.00000
     Eigenvalues --- 1000.000001000.000001000.000001000.000001000.00000
 RFO step:  Lambda= 0.00000000D+00 EMin= 3.56414031D-03
 Linear search not attempted -- first point.
 Iteration  1 RMS(Cart)=  0.00011763 RMS(Int)=  0.00000000
 Iteration  2 RMS(Cart)=  0.00000001 RMS(Int)=  0.00000000
 Iteration  1 RMS(Cart)=  0.00000000 RMS(Int)=  0.00000000
 Variable       Old X    -DE/DX   Delta X   Delta X   Delta X     New X
                                 (Linear)    (Quad)   (Total)
    R1        2.87448   0.00000   0.00000  -0.00001  -0.00001   2.87447
    R2        2.05861   0.00000   0.00000   0.00000   0.00000   2.05861
    R3        2.06560   0.00000   0.00000   0.00000   0.00000   2.06560
    R4        2.07044   0.00000   0.00000   0.00000   0.00000   2.07044
    R5        2.32293   0.00000   0.00000   0.00000   0.00000   2.32293
    R6        2.60955   0.00001   0.00000   0.00002   0.00002   2.60957
    R7        2.77353   0.00000   0.00000  -0.00001  -0.00001   2.77352
    R8        2.77159   0.00000   0.00000   0.00001   0.00001   2.77160
    R9        2.89782   0.00000   0.00000  -0.00001  -0.00001   2.89780
   R10        2.06983   0.00000   0.00000   0.00000   0.00000   2.06983
   R11        2.05700   0.00000   0.00000  -0.00001  -0.00001   2.05699
   R12        2.32437   0.00000   0.00000   0.00000   0.00000   2.32436
   R13        2.59105   0.00000   0.00000   0.00000   0.00000   2.59105
   R14        2.75203   0.00000   0.00000  -0.00001  -0.00001   2.75202
   R15        2.75192   0.00000   0.00000  -0.00001  -0.00001   2.75192
   R16        2.05628   0.00000   0.00000   0.00000   0.00000   2.05628
   R17        2.07452   0.00000   0.00000   0.00000   0.00000   2.07452
   R18        2.07422   0.00000   0.00000   0.00000   0.00000   2.07422
   R19        2.07433   0.00000   0.00000   0.00000   0.00000   2.07433
   R20        2.05691   0.00000   0.00000   0.00000   0.00000   2.05691
   R21        2.07277   0.00000   0.00000   0.00000   0.00000   2.07277
   R22        2.06413   0.00000   0.00000   0.00000   0.00000   2.06413
   R23        2.06540   0.00000   0.00000   0.00000   0.00000   2.06540
   R24        2.89309   0.00000   0.00000   0.00000   0.00000   2.89309
   R25        2.08604   0.00000   0.00000   0.00000   0.00000   2.08604
   R26        2.07974   0.00000   0.00000   0.00000   0.00000   2.07974
   R27        2.66919   0.00000   0.00000   0.00000   0.00000   2.66920
   R28        2.66925   0.00000   0.00000   0.00001   0.00001   2.66926
   R29        2.06417   0.00000   0.00000   0.00000   0.00000   2.06417
   R30        2.08020   0.00000   0.00000   0.00000   0.00000   2.08020
   R31        2.08170   0.00000   0.00000   0.00000   0.00000   2.08170
    A1        1.87271   0.00000   0.00000   0.00000   0.00000   1.87271
    A2        1.97238   0.00000   0.00000  -0.00002  -0.00002   1.97236
    A3        1.93218   0.00000   0.00000   0.00003   0.00003   1.93221
    A4        1.91147   0.00000   0.00000  -0.00001  -0.00001   1.91146
    A5        1.89501   0.00000   0.00000   0.00001   0.00001   1.89502
    A6        1.87898   0.00000   0.00000   0.00000   0.00000   1.87897
    A7        2.10572   0.00000   0.00000   0.00001   0.00001   2.10573
    A8        2.05551   0.00000   0.00000   0.00001   0.00001   2.05552
    A9        2.12184   0.00000   0.00000  -0.00002  -0.00002   2.12182
   A10        2.04864  -0.00019   0.00000  -0.00001  -0.00001   2.04863
   A11        2.15285   0.00058   0.00000   0.00001   0.00001   2.15286
   A12        2.04043  -0.00011   0.00000   0.00000   0.00000   2.04044
   A13        1.96514   0.00007   0.00000  -0.00005  -0.00005   1.96509
   A14        1.91309   0.00013   0.00000   0.00002   0.00002   1.91310
   A15        1.87445  -0.00009   0.00000   0.00000   0.00000   1.87444
   A16        1.82944   0.00142   0.00000   0.00001   0.00001   1.82945
   A17        1.98441  -0.00143   0.00000   0.00001   0.00001   1.98441
   A18        1.89577  -0.00004   0.00000   0.00002   0.00002   1.89579
   A19        2.08565   0.00000   0.00000   0.00000   0.00000   2.08565
   A20        2.05682  -0.00001   0.00000  -0.00003  -0.00003   2.05679
   A21        2.14059   0.00001   0.00000   0.00002   0.00002   2.14062
   A22        2.19335   0.00000   0.00000  -0.00001  -0.00001   2.19334
   A23        2.07483   0.00000   0.00000   0.00000   0.00000   2.07483
   A24        2.01490   0.00000   0.00000   0.00001   0.00001   2.01491
   A25        1.95734   0.00000   0.00000  -0.00001  -0.00001   1.95733
   A26        1.92128   0.00000   0.00000   0.00001   0.00001   1.92129
   A27        1.92406   0.00000   0.00000   0.00001   0.00001   1.92407
   A28        1.88643   0.00000   0.00000   0.00000   0.00000   1.88643
   A29        1.89325   0.00000   0.00000  -0.00001  -0.00001   1.89324
   A30        1.87934   0.00000   0.00000   0.00000   0.00000   1.87934
   A31        1.93079   0.00000   0.00000   0.00000   0.00000   1.93080
   A32        1.89366   0.00000   0.00000   0.00000   0.00000   1.89366
   A33        1.92555   0.00000   0.00000   0.00001   0.00001   1.92556
   A34        1.91237   0.00000   0.00000  -0.00001  -0.00001   1.91237
   A35        1.88739   0.00000   0.00000   0.00000   0.00000   1.88739
   A36        1.91412   0.00000   0.00000   0.00000   0.00000   1.91412
   A37        1.93170   0.00000   0.00000  -0.00001  -0.00001   1.93169
   A38        1.89062   0.00000   0.00000  -0.00001  -0.00001   1.89061
   A39        1.97519   0.00000   0.00000  -0.00002  -0.00002   1.97517
   A40        1.87314   0.00000   0.00000   0.00001   0.00001   1.87315
   A41        1.89475   0.00000   0.00000   0.00003   0.00003   1.89477
   A42        1.89545   0.00000   0.00000   0.00000   0.00000   1.89545
   A43        1.92616   0.00000   0.00000   0.00002   0.00002   1.92618
   A44        1.92395   0.00000   0.00000  -0.00001  -0.00001   1.92395
   A45        1.86588   0.00000   0.00000   0.00002   0.00002   1.86589
   A46        1.87410   0.00000   0.00000   0.00001   0.00001   1.87411
   A47        1.93628   0.00000   0.00000   0.00000   0.00000   1.93628
   A48        1.93819   0.00000   0.00000  -0.00004  -0.00004   1.93815
   A49        1.97257   0.00000   0.00000  -0.00001  -0.00001   1.97256
   A50        1.87206   0.00000   0.00000  -0.00001  -0.00001   1.87205
   A51        1.95042   0.00000   0.00000   0.00001   0.00001   1.95043
   A52        1.95111   0.00000   0.00000   0.00000   0.00000   1.95110
   A53        1.90031   0.00000   0.00000  -0.00001  -0.00001   1.90031
   A54        1.89923   0.00000   0.00000   0.00000   0.00000   1.89923
   A55        1.88963   0.00000   0.00000   0.00001   0.00001   1.88964
    D1       -0.17636   0.00000   0.00000   0.00011   0.00011  -0.17625
    D2        2.94956   0.00000   0.00000   0.00002   0.00002   2.94958
    D3       -2.28519   0.00000   0.00000   0.00013   0.00013  -2.28506
    D4        0.84073   0.00000   0.00000   0.00004   0.00004   0.84077
    D5        1.88874   0.00000   0.00000   0.00013   0.00013   1.88887
    D6       -1.26853   0.00000   0.00000   0.00004   0.00004  -1.26849
    D7        2.94074   0.00049   0.00000   0.00002   0.00002   2.94076
    D8        0.11372  -0.00049   0.00000  -0.00001  -0.00001   0.11371
    D9       -0.21668   0.00049   0.00000  -0.00007  -0.00007  -0.21675
   D10       -3.04370  -0.00049   0.00000  -0.00010  -0.00010  -3.04380
   D11        2.42024  -0.00317   0.00000   0.00000   0.00000   2.42024
   D12       -1.83391  -0.00128   0.00000   0.00000   0.00000  -1.83391
   D13        0.22261  -0.00131   0.00000   0.00003   0.00003   0.22263
   D14       -1.01541  -0.00212   0.00000   0.00003   0.00003  -1.01538
   D15        1.01362  -0.00023   0.00000   0.00003   0.00003   1.01365
   D16        3.07014  -0.00027   0.00000   0.00006   0.00006   3.07020
   D17        0.45434   0.00048   0.00000   0.00003   0.00003   0.45437
   D18        2.50343   0.00048   0.00000   0.00003   0.00003   2.50347
   D19       -1.67697   0.00048   0.00000   0.00002   0.00002  -1.67695
   D20       -2.37405  -0.00048   0.00000   0.00000   0.00000  -2.37405
   D21       -0.32495  -0.00048   0.00000   0.00000   0.00000  -0.32495
   D22        1.77783  -0.00048   0.00000  -0.00001  -0.00001   1.77782
   D23        1.75013   0.00075   0.00000  -0.00004  -0.00004   1.75009
   D24       -1.37457   0.00075   0.00000   0.00000   0.00000  -1.37457
   D25       -0.32835  -0.00033   0.00000  -0.00004  -0.00004  -0.32839
   D26        2.83014  -0.00033   0.00000   0.00000   0.00000   2.83014
   D27       -2.39617  -0.00042   0.00000  -0.00008  -0.00008  -2.39625
   D28        0.76232  -0.00042   0.00000  -0.00004  -0.00004   0.76228
   D29        0.01097   0.00000   0.00000  -0.00004  -0.00004   0.01093
   D30        3.13629   0.00000   0.00000  -0.00001  -0.00001   3.13628
   D31       -3.11316   0.00000   0.00000   0.00000   0.00000  -3.11316
   D32        0.01217   0.00000   0.00000   0.00003   0.00003   0.01219
   D33        0.00907   0.00000   0.00000  -0.00001  -0.00001   0.00905
   D34        2.10998   0.00000   0.00000  -0.00002  -0.00002   2.10997
   D35       -2.10243   0.00000   0.00000   0.00000   0.00000  -2.10243
   D36       -3.11675   0.00000   0.00000  -0.00004  -0.00004  -3.11679
   D37       -1.01584   0.00000   0.00000  -0.00004  -0.00004  -1.01588
   D38        1.05494   0.00000   0.00000  -0.00003  -0.00003   1.05491
   D39       -2.06210   0.00000   0.00000   0.00001   0.00001  -2.06209
   D40        0.03617   0.00000   0.00000   0.00000   0.00000   0.03617
   D41        2.13341   0.00000   0.00000   0.00000   0.00000   2.13341
   D42        1.06486   0.00000   0.00000   0.00004   0.00004   1.06489
   D43       -3.12006   0.00000   0.00000   0.00003   0.00003  -3.12003
   D44       -1.02282   0.00000   0.00000   0.00003   0.00003  -1.02279
   D45        0.93785   0.00000   0.00000   0.00002   0.00002   0.93787
   D46       -1.12943   0.00000   0.00000   0.00000   0.00000  -1.12943
   D47        3.04528   0.00000   0.00000   0.00005   0.00005   3.04532
   D48       -1.21397   0.00000   0.00000   0.00002   0.00002  -1.21395
   D49        3.00193   0.00000   0.00000   0.00000   0.00000   3.00193
   D50        0.89345   0.00000   0.00000   0.00005   0.00005   0.89350
   D51        3.03788   0.00000   0.00000   0.00000   0.00000   3.03789
   D52        0.97060   0.00000   0.00000  -0.00002  -0.00002   0.97058
   D53       -1.13787   0.00000   0.00000   0.00003   0.00003  -1.13784
   D54        3.07674   0.00000   0.00000   0.00002   0.00002   3.07676
   D55       -1.10547   0.00000   0.00000   0.00006   0.00006  -1.10542
   D56        0.97735   0.00000   0.00000   0.00004   0.00004   0.97740
   D57       -3.13814   0.00000   0.00000   0.00012   0.00012  -3.13802
   D58       -1.05664   0.00000   0.00000   0.00011   0.00011  -1.05653
   D59        1.06448   0.00000   0.00000   0.00012   0.00012   1.06460
         Item               Value     Threshold  Converged?
 Maximum Force            0.000009     0.000450     YES
 RMS     Force            0.000002     0.000300     YES
 Maximum Displacement     0.000455     0.001800     YES
 RMS     Displacement     0.000118     0.001200     YES
 Predicted change in Energy=-2.242651D-09
 Optimization completed.
    -- Stationary point found.
                           ----------------------------
                           !   Optimized Parameters   !
                           ! (Angstroms and Degrees)  !
 --------------------------                            --------------------------
 ! Name  Definition              Value          Derivative Info.                !
 --------------------------------------------------------------------------------
 ! R1    R(1,2)                  1.5211         -DE/DX =    0.0                 !
 ! R2    R(1,11)                 1.0894         -DE/DX =    0.0                 !
 ! R3    R(1,12)                 1.0931         -DE/DX =    0.0                 !
 ! R4    R(1,13)                 1.0956         -DE/DX =    0.0                 !
 ! R5    R(2,3)                  1.2292         -DE/DX =    0.0                 !
 ! R6    R(2,4)                  1.3809         -DE/DX =    0.0                 !
 ! R7    R(4,5)                  1.4677         -DE/DX =    0.0                 !
 ! R8    R(4,22)                 1.4667         -DE/DX =    0.0                 !
 ! R9    R(5,6)                  1.5335         -DE/DX =    0.0                 !
 ! R10   R(5,14)                 1.0953         -DE/DX =    0.0                 !
 ! R11   R(5,15)                 1.0885         -DE/DX =    0.0                 !
 ! R12   R(6,7)                  1.23           -DE/DX =    0.0                 !
 ! R13   R(6,8)                  1.3711         -DE/DX =    0.0                 !
 ! R14   R(8,9)                  1.4563         -DE/DX =    0.0                 !
 ! R15   R(8,10)                 1.4563         -DE/DX =    0.0                 !
 ! R16   R(9,16)                 1.0881         -DE/DX =    0.0                 !
 ! R17   R(9,17)                 1.0978         -DE/DX =    0.0                 !
 ! R18   R(9,18)                 1.0976         -DE/DX =    0.0                 !
 ! R19   R(10,19)                1.0977         -DE/DX =    0.0                 !
 ! R20   R(10,20)                1.0885         -DE/DX =    0.0                 !
 ! R21   R(10,21)                1.0969         -DE/DX =    0.0                 !
 ! R22   R(22,23)                1.0923         -DE/DX =    0.0                 !
 ! R23   R(22,24)                1.093          -DE/DX =    0.0                 !
 ! R24   R(22,25)                1.531          -DE/DX =    0.0                 !
 ! R25   R(25,26)                1.1039         -DE/DX =    0.0                 !
 ! R26   R(25,27)                1.1005         -DE/DX =    0.0                 !
 ! R27   R(25,28)                1.4125         -DE/DX =    0.0                 !
 ! R28   R(28,29)                1.4125         -DE/DX =    0.0                 !
 ! R29   R(29,30)                1.0923         -DE/DX =    0.0                 !
 ! R30   R(29,31)                1.1008         -DE/DX =    0.0                 !
 ! R31   R(29,32)                1.1016         -DE/DX =    0.0                 !
 ! A1    A(2,1,11)             107.2984         -DE/DX =    0.0                 !
 ! A2    A(2,1,12)             113.0092         -DE/DX =    0.0                 !
 ! A3    A(2,1,13)             110.7057         -DE/DX =    0.0                 !
 ! A4    A(11,1,12)            109.5191         -DE/DX =    0.0                 !
 ! A5    A(11,1,13)            108.5763         -DE/DX =    0.0                 !
 ! A6    A(12,1,13)            107.6575         -DE/DX =    0.0                 !
 ! A7    A(1,2,3)              120.649          -DE/DX =    0.0                 !
 ! A8    A(1,2,4)              117.7723         -DE/DX =    0.0                 !
 ! A9    A(3,2,4)              121.5723         -DE/DX =    0.0                 !
 ! A10   A(2,4,5)              117.3784         -DE/DX =   -0.0002              !
 ! A11   A(2,4,22)             123.3492         -DE/DX =    0.0006              !
 ! A12   A(5,4,22)             116.9083         -DE/DX =   -0.0001              !
 ! A13   A(4,5,6)              112.5941         -DE/DX =    0.0001              !
 ! A14   A(4,5,14)             109.6118         -DE/DX =    0.0001              !
 ! A15   A(4,5,15)             107.3978         -DE/DX =   -0.0001              !
 ! A16   A(6,5,14)             104.819          -DE/DX =    0.0014              !
[...]
    D7        2.89152   0.00056   0.00024   0.00022   0.00046   2.89198
    D8        0.27206  -0.00055  -0.00003   0.00022   0.00019   0.27225
    D9       -0.27989   0.00056   0.00029   0.00014   0.00043  -0.27946
   D10       -2.89934  -0.00056   0.00002   0.00014   0.00016  -2.89918
   D11        2.42024  -0.00228   0.00000   0.00000   0.00000   2.42024
   D12       -1.75779  -0.00248  -0.00006   0.00004  -0.00002  -1.75780
   D13        0.26239  -0.00254  -0.00007  -0.00001  -0.00007   0.26232
   D14       -1.21845  -0.00083   0.00024   0.00001   0.00025  -1.21820
   D15        0.88671  -0.00103   0.00018   0.00005   0.00024   0.88695
   D16        2.90689  -0.00108   0.00017   0.00001   0.00018   2.90707
   D17        0.38781   0.00054   0.00003  -0.00017  -0.00014   0.38767
   D18        2.41884   0.00055   0.00004  -0.00010  -0.00006   2.41878
   D19       -1.74857   0.00054   0.00005  -0.00015  -0.00011  -1.74868
   D20       -2.23157  -0.00054  -0.00023  -0.00018  -0.00041  -2.23198
   D21       -0.20054  -0.00053  -0.00022  -0.00011  -0.00033  -0.20087
   D22        1.91523  -0.00054  -0.00021  -0.00016  -0.00038   1.91486
   D23        2.69794  -0.00248   0.00005  -0.00006  -0.00001   2.69793
   D24       -0.32737  -0.00560   0.00000   0.00000   0.00000  -0.32737
   D25        0.53560  -0.00049   0.00007   0.00000   0.00007   0.53567
   D26       -2.48972  -0.00361   0.00002   0.00006   0.00008  -2.48964
   D27       -1.44373  -0.00045   0.00007  -0.00005   0.00003  -1.44371
   D28        1.81413  -0.00357   0.00003   0.00001   0.00004   1.81417
   D29       -0.73553   0.00163  -0.00017   0.00051   0.00034  -0.73519
   D30        3.02196   0.00163   0.00033   0.00004   0.00036   3.02232
   D31        2.52795  -0.00161  -0.00022   0.00058   0.00036   2.52831
   D32        0.00225  -0.00161   0.00028   0.00011   0.00039   0.00264
   D33        0.49869   0.00001   0.00246   0.00018   0.00265   0.50134
   D34        2.59470   0.00000   0.00229   0.00008   0.00237   2.59707
   D35       -1.60542   0.00001   0.00228   0.00021   0.00248  -1.60294
   D36        3.03504   0.00000   0.00196   0.00066   0.00262   3.03765
   D37       -1.15214   0.00000   0.00179   0.00055   0.00234  -1.14980
   D38        0.93092   0.00001   0.00177   0.00068   0.00245   0.93337
   D39       -2.79565   0.00000  -0.00077   0.00162   0.00085  -2.79479
   D40       -0.70104   0.00001  -0.00078   0.00168   0.00090  -0.70014
   D41        1.39138   0.00000  -0.00078   0.00164   0.00086   1.39224
   D42        0.91515   0.00000  -0.00034   0.00116   0.00082   0.91597
   D43        3.00976   0.00000  -0.00035   0.00122   0.00087   3.01062
   D44       -1.18101   0.00000  -0.00035   0.00118   0.00083  -1.18018
   D45        0.92769   0.00000   0.00007  -0.00037  -0.00030   0.92739
   D46       -1.14613   0.00000   0.00011  -0.00039  -0.00028  -1.14642
   D47        3.03107   0.00000   0.00007  -0.00035  -0.00029   3.03078
   D48       -1.23514   0.00000   0.00008  -0.00027  -0.00019  -1.23533
   D49        2.97422   0.00001   0.00013  -0.00030  -0.00017   2.97405
   D50        0.86823   0.00000   0.00009  -0.00026  -0.00017   0.86806
   D51        3.04228   0.00000   0.00006  -0.00035  -0.00030   3.04199
   D52        0.96846   0.00000   0.00011  -0.00038  -0.00028   0.96818
   D53       -1.13753   0.00000   0.00006  -0.00034  -0.00028  -1.13781
   D54        3.08762  -0.00001   0.00002  -0.00059  -0.00056   3.08706
   D55       -1.09578  -0.00001   0.00001  -0.00058  -0.00057  -1.09635
   D56        0.99304   0.00000   0.00001  -0.00052  -0.00050   0.99254
   D57       -3.13792   0.00001  -0.00001   0.00029   0.00028  -3.13763
   D58       -1.05592   0.00001   0.00000   0.00029   0.00029  -1.05563
   D59        1.06451   0.00000  -0.00001   0.00027   0.00026   1.06477
         Item               Value     Threshold  Converged?
 Maximum Force            0.000059     0.000450     YES
 RMS     Force            0.000011     0.000300     YES
 Maximum Displacement     0.006190     0.001800     NO 
 RMS     Displacement     0.000957     0.001200     YES
 Predicted change in Energy=-8.537659D-08
 GradGradGradGradGradGradGradGradGradGradGradGradGradGradGradGradGradGrad

                          Input orientation:                          
 ---------------------------------------------------------------------
 Center     Atomic      Atomic             Coordinates (Angstroms)
 Number     Number       Type             X           Y           Z
 ---------------------------------------------------------------------
      1          6           0        1.749827    2.820011   -0.395492
      2          6           0        0.346581    2.468172    0.075200
      3          8           0       -0.536675    3.316791    0.085202
      4          7           0        0.099204    1.151600    0.454987
      5          6           0       -1.141292    0.915811    1.199055
      6          6           0       -2.004744   -0.317937    0.891791
      7          8           0       -2.721067   -0.731473    1.795858
      8          7           0       -1.868805   -1.007111   -0.300032
      9          6           0       -1.710171   -0.302784   -1.574096
     10          6           0       -2.634586   -2.248071   -0.404411
     11          1           0        1.682462    3.766361   -0.931349
     12          1           0        2.194932    2.061660   -1.043706
     13          1           0        2.417187    2.959744    0.462377
     14          1           0       -0.933059    0.826397    2.270962
     15          1           0       -1.756682    1.809968    1.067671
     16          1           0       -1.227139    0.659319   -1.424454
     17          1           0       -1.097112   -0.898838   -2.258566
     18          1           0       -2.687416   -0.136192   -2.048513
     19          1           0       -2.193895   -2.864847   -1.193118
     20          1           0       -2.596670   -2.777841    0.546176
     21          1           0       -3.688850   -2.061718   -0.649976
     22          6           0        1.208181    0.222915    0.729998
     23          1           0        2.120278    0.771061    0.978456
     24          1           0        0.951859   -0.367297    1.614276
     25          6           0        1.531972   -0.737316   -0.416715
     26          1           0        1.696540   -0.179204   -1.354388
     27          1           0        0.691629   -1.426278   -0.582443
     28          8           0        2.699521   -1.438184   -0.036303
     29          6           0        3.084210   -2.420729   -0.975456
     30          1           0        3.985317   -2.902828   -0.589892
     31          1           0        2.302361   -3.183861   -1.111786
     32          1           0        3.310317   -1.979799   -1.959136
 ---------------------------------------------------------------------
                    Distance matrix (angstroms):
                    1          2          3          4          5
     1  C    0.000000
     2  C    1.521329   0.000000
     3  O    2.388713   1.224906   0.000000
     4  N    2.496290   1.392406   2.286730   0.000000
     5  C    3.811446   2.426240   2.714947   1.465628   0.000000
     6  C    5.059705   3.736034   4.002132   2.603254   1.536911
     7  O    6.115876   4.754876   4.907785   3.646618   2.359111
     8  N    5.267871   4.138396   4.540826   3.017142   2.544438
     9  C    4.807550   3.824735   4.151106   3.083220   3.082039
    10  C    6.701389   5.600029   5.967297   4.446339   3.848530
    11  H    1.089615   2.117314   2.481947   3.356428   4.542890
    12  H    1.092427   2.198546   3.211147   2.732465   4.180112
    13  H    1.095826   2.163090   2.999174   2.939811   4.169308
    14  H    4.275787   3.025603   3.337174   2.114023   1.095600
    15  H    3.931492   2.417011   2.173517   2.062315   1.093382
    16  H    3.819644   2.827986   3.133362   2.352408   2.637415
    17  H    5.040431   4.343670   4.855807   3.605390   3.905131
    18  H    5.582180   4.527472   4.593639   3.961208   3.747521
    19  H    6.964679   6.041832   6.526341   4.909826   4.596068
    20  H    7.149456   6.033672   6.449854   4.766189   4.023362
    21  H    7.312676   6.109867   6.277344   5.088782   4.332972
    22  C    2.881842   2.492447   3.610035   1.472385   2.494021
    23  H    2.494627   2.615732   3.786561   2.122162   3.272224
    24  H    3.851603   3.282529   4.257500   2.092372   2.489991
    25  C    3.564055   3.452866   4.578974   2.526003   3.534102
    26  H    3.149224   3.297683   4.391088   2.756149   3.971450
    27  H    4.380148   3.964630   4.944814   2.841246   3.466802
    28  O    4.377574   4.561620   5.753044   3.702701   4.671108
    29  C    5.438961   5.700863   6.866946   4.870109   5.806536
    30  H    6.147039   6.521532   7.719314   5.712445   6.638105
    31  H    6.071643   6.097498   7.193843   5.109295   5.831470
    32  H    5.283776   5.718977   6.858027   5.093613   6.178636
                    6          7          8          9         10
     6  C    0.000000
     7  O    1.225344   0.000000
     8  N    1.383431   2.279272   0.000000
     9  C    2.483465   3.544330   1.464404   0.000000
    10  C    2.408787   2.673712   1.461950   2.450887   0.000000
    11  H    5.796622   6.859974   5.982984   5.336762   7.422127
    12  H    5.200568   6.327066   5.146296   4.595839   6.504362
    13  H    5.520966   6.465672   5.889561   5.641489   7.307056
    14  H    2.088091   2.418605   3.293536   4.082085   4.416466
    15  H    2.149523   2.814110   3.133546   3.383018   4.405158
    16  H    2.631480   3.812680   2.110224   1.086901   3.387375
    17  H    3.329563   4.370766   2.107864   1.095272   2.760823
    18  H    3.023981   3.890332   2.117973   1.099014   2.676919
    19  H    3.296873   3.709875   2.086737   2.635014   1.093929
    20  H    2.553616   2.401001   2.093165   3.377475   1.088903
    21  H    2.872982   2.947585   2.132421   2.804107   1.098408
    22  C    3.262145   4.181615   3.470125   3.755262   4.707390
    23  H    4.267228   5.134625   4.550737   4.726627   5.799674
    24  H    3.043998   3.695401   3.468441   4.154068   4.524931
    25  C    3.794262   4.794148   3.413457   3.469847   4.432013
    26  H    4.331751   5.453834   3.809039   3.416024   4.892987
    27  H    3.266836   4.217294   2.609843   2.830947   3.430853
    28  O    4.924066   5.765330   4.596192   4.806176   5.407784
    29  C    5.814275   6.650941   5.194889   5.275429   5.749829
    30  H    6.690132   7.441920   6.160236   6.337781   6.654790
    31  H    5.547882   6.301066   4.774497   4.961326   5.074400
    32  H    6.256152   7.213591   5.524677   5.307159   6.150692
                   11         12         13         14         15
    11  H    0.000000
    12  H    1.783608   0.000000
    13  H    1.770007   1.767551   0.000000
    14  H    5.073376   4.721994   4.364207   0.000000
    15  H    4.432975   4.487373   4.371447   1.758885   0.000000
    16  H    4.285166   3.717809   4.704594   3.710862   2.795549
    17  H    5.590315   4.591077   5.885787   4.849740   4.340105
    18  H    5.964379   5.447707   6.476601   4.760485   3.790040
    19  H    7.685544   6.599590   7.611084   5.216784   5.211162
    20  H    7.957427   6.993422   7.620084   4.328166   4.693136
    21  H    7.930742   7.195565   7.983489   4.946460   4.655484
    22  C    3.942211   2.738738   3.003923   2.706228   3.379819
    23  H    3.579226   2.400075   2.268221   3.316097   4.014736
    24  H    4.909289   3.809190   3.813563   2.325739   3.517877
    25  C    4.535483   2.943960   3.901880   3.968020   4.416707
    26  H    3.968205   2.316547   3.697697   4.590119   4.663466
    27  H    5.297828   3.826015   4.827669   3.981969   4.380684
    28  O    5.377993   3.676735   4.435106   4.862863   5.623788
    29  C    6.344047   4.570261   5.609080   6.100943   6.745917
    30  H    7.063838   5.296939   6.159225   6.803089   7.611077
    31  H    6.980145   5.247062   6.343111   6.163854   6.794423
    32  H    6.060084   4.291327   5.573194   6.616246   7.014155
                   16         17         18         19         20
    16  H    0.000000
    17  H    1.772146   0.000000
    18  H    1.776146   1.776181   0.000000
    19  H    3.661676   2.490643   2.901865   0.000000
    20  H    4.192024   3.694036   3.703911   1.787440   0.000000
    21  H    3.750183   3.264499   2.581942   1.781828   1.771008
    22  C    3.280686   3.937540   4.798413   4.980640   4.849250
    23  H    4.122095   4.859884   5.753223   6.045465   5.918714
    24  H    3.877609   4.413584   5.168536   4.900509   4.420817
    25  C    3.252510   3.214123   4.563699   4.360191   4.704953
    26  H    3.042356   3.023227   4.438776   4.730134   5.366257
    27  H    2.956411   2.507424   3.902772   3.281563   3.730070
    28  O    4.663169   4.432130   5.896038   5.226769   5.493961
    29  C    5.317521   4.630980   6.299383   5.301227   5.891968
    30  H    6.368287   5.712401   7.369343   6.208702   6.680481
    31  H    5.227348   4.253570   5.921455   4.508293   5.187890
    32  H    5.276300   4.547919   6.275323   5.627294   6.465753
                   21         22         23         24         25
    21  H    0.000000
    22  C    5.577167   0.000000
    23  H    6.665012   1.092756   0.000000
    24  H    5.434527   1.093617   1.750808   0.000000
    25  C    5.391236   1.530305   2.137243   2.144381   0.000000
    26  H    5.748258   2.178270   2.554353   3.066414   1.103541
    27  H    4.426843   2.170061   3.050531   2.452496   1.099231
    28  O    6.447998   2.360204   2.499205   2.631641   1.413896
    29  C    6.790373   3.662910   3.864513   3.933219   2.357014
    30  H    7.720357   4.384616   4.408576   4.526492   3.276940
    31  H    6.112862   4.024366   4.477017   4.145878   2.657481
    32  H    7.121022   4.062310   4.196769   4.575124   2.661830
                   26         27         28         29         30
    26  H    0.000000
    27  H    1.777902   0.000000
    28  O    2.080469   2.080875   0.000000
    29  C    2.663391   2.620655   1.412582   0.000000
    30  H    3.638829   3.609519   2.026058   1.092278   0.000000
    31  H    3.074709   2.442081   2.088489   1.101019   1.784290
    32  H    2.492416   3.009849   2.088948   1.101440   1.783938
                   31         32
    31  H    0.000000
    32  H    1.784304   0.000000
 Stoichiometry    C9H18N2O3
 Framework group  C1[X(C9H18N2O3)]
 Deg. of freedom    90
 Full point group                 C1      NOp   1
 Largest Abelian subgroup         C1      NOp   1
 Largest concise Abelian subgroup C1      NOp   1
                         Standard orientation:                         
 ---------------------------------------------------------------------
 Center     Atomic      Atomic             Coordinates (Angstroms)
 Number     Number       Type             X           Y           Z
 ---------------------------------------------------------------------
      1          6           0        2.238692    2.428916   -0.485371
      2          6           0        0.745802    2.319857   -0.213657
      3          8           0       -0.002881    3.254221   -0.472179
      4          7           0        0.264500    1.118473    0.299977
      5          6           0       -1.093845    1.148585    0.849574
      6          6           0       -2.064125   -0.011808    0.577289
      7          8           0       -2.957830   -0.190038    1.396431
      8          7           0       -1.848339   -0.894676   -0.465717
      9          6           0       -1.405040   -0.427235   -1.780809
     10          6           0       -2.754323   -2.040650   -0.522567
     11          1           0        2.383910    3.278167   -1.152413
     12          1           0        2.666318    1.530391   -0.936129
     13          1           0        2.783169    2.627736    0.444601
     14          1           0       -1.062592    1.209588    1.943028
     15          1           0       -1.552841    2.074277    0.491944
     16          1           0       -0.821259    0.484911   -1.688377
     17          1           0       -0.785086   -1.191653   -2.261375
     18          1           0       -2.267791   -0.228698   -2.432020
     19          1           0       -2.290409   -2.822478   -1.131015
     20          1           0       -2.932668   -2.411430    0.485612
     21          1           0       -3.723949   -1.777136   -0.966288
     22          6           0        1.180476    0.125702    0.885905
     23          1           0        2.112213    0.598950    1.205306
     24          1           0        0.715608   -0.281417    1.788207
     25          6           0        1.535887   -1.037081   -0.043317
     26          1           0        1.914462   -0.659549   -1.008694
     27          1           0        0.642529   -1.643260   -0.250120
     28          8           0        2.525004   -1.796241    0.623336
     29          6           0        2.905919   -2.954462   -0.089978
     30          1           0        3.663714   -3.467912    0.506000
     31          1           0        2.055160   -3.635301   -0.247810
     32          1           0        3.335389   -2.706234   -1.073394
 ---------------------------------------------------------------------
 Rotational constants (GHZ):      0.6363337      0.5476041      0.3526233
 Standard basis: 6-31G(d,p) (6D, 7F)
 There are   300 symmetry adapted basis functions of A   symmetry.
 Integral buffers will be    131072 words long.
 Raffenetti 2 integral format.
 Two-electron integral symmetry is turned on.
   300 basis functions,   518 primitive gaussians,   300 cartesian basis functions
    55 alpha electrons       55 beta electrons
       nuclear repulsion energy       982.8172652578 Hartrees.
 NAtoms=   32 NActive=   32 NUniq=   32 SFac= 1.00D+00 NAtFMM=   60 NAOKFM=F Big=F
 One-electron integrals computed using PRISM.
 NBasis=   300 RedAO= T  NBF=   300
 NBsUse=   300 1.00D-06 NBFU=   300
 Initial guess read from the read-write file.
 B after Tr=     0.000000    0.000000    0.000000
         Rot=    1.000000    0.000000    0.000000    0.000000 Ang=   0.00 deg.
 Initial guess orbital symmetries:
       Occupied  (A) (A) (A) (A) (A) (A) (A) (A) (A) (A) (A) (A)
                 (A) (A) (A) (A) (A) (A) (A) (A) (A) (A) (A) (A)
                 (A) (A) (A) (A) (A) (A) (A) (A) (A) (A) (A) (A)
                 (A) (A) (A) (A) (A) (A) (A) (A) (A) (A) (A) (A)
                 (A) (A) (A) (A) (A) (A) (A)
       Virtual   (A) (A) (A) (A) (A) (A) (A) (A) (A) (A) (A) (A)
                 (A) (A) (A) (A) (A) (A) (A) (A) (A) (A) (A) (A)
                 (A) (A) (A) (A) (A) (A) (A) (A) (A) (A) (A) (A)
                 (A) (A) (A) (A) (A) (A) (A) (A) (A) (A) (A) (A)
                 (A) (A) (A) (A) (A) (A) (A) (A) (A) (A) (A) (A)
                 (A) (A) (A) (A) (A) (A) (A) (A) (A) (A) (A) (A)
                 (A) (A) (A) (A) (A) (A) (A) (A) (A) (A) (A) (A)
                 (A) (A) (A) (A) (A) (A) (A) (A) (A) (A) (A) (A)
                 (A) (A) (A) (A) (A) (A) (A) (A) (A) (A) (A) (A)
                 (A) (A) (A) (A) (A) (A) (A) (A) (A) (A) (A) (A)
                 (A) (A) (A) (A) (A) (A) (A) (A) (A) (A) (A) (A)
                 (A) (A) (A) (A) (A) (A) (A) (A) (A) (A) (A) (A)
                 (A) (A) (A) (A) (A) (A) (A) (A) (A) (A) (A) (A)
                 (A) (A) (A) (A) (A) (A) (A) (A) (A) (A) (A) (A)
                 (A) (A) (A) (A) (A) (A) (A) (A) (A) (A) (A) (A)
                 (A) (A) (A) (A) (A) (A) (A) (A) (A) (A) (A) (A)
                 (A) (A) (A) (A) (A) (A) (A) (A) (A) (A) (A) (A)
                 (A) (A) (A) (A) (A) (A) (A) (A) (A) (A) (A) (A)
                 (A) (A) (A) (A) (A) (A) (A) (A) (A) (A) (A) (A)
                 (A) (A) (A) (A) (A) (A) (A) (A) (A) (A) (A) (A)
                 (A) (A) (A) (A) (A)
