 Entering Gaussian System, Link 0=/data/opt/apps/g09-C01/g09
 Initial command:
 /data/opt/apps/g09-C01/l1.exe /tmp/g09-tuu61186-3073238c21e64fea8x/Gau-3073383.inp -scrdir=/tmp/g09-tuu61186-3073238c21e64fea8x/
 Entering Link 1 = /data/opt/apps/g09-C01/l1.exe PID=   3073391.
  
 Copyright (c) 1988,1990,1992,1993,1995,1998,2003,2009,2011,
            Gaussian, Inc.  All Rights Reserved.
  
 This is part of the Gaussian(R) 09 program.  It is based on
 the Gaussian(R) 03 system (copyright 2003, Gaussian, Inc.),
 the Gaussian(R) 98 system (copyright 1998, Gaussian, Inc.),
 the Gaussian(R) 94 system (copyright 1995, Gaussian, Inc.),
 the Gaussian 92(TM) system (copyright 1992, Gaussian, Inc.),
 the Gaussian 90(TM) system (copyright 1990, Gaussian, Inc.),
 the Gaussian 88(TM) system (copyright 1988, Gaussian, Inc.),
 the Gaussian 86(TM) system (copyright 1986, Carnegie Mellon
 University), and the Gaussian 82(TM) system (copyright 1983,
 Carnegie Mellon University). Gaussian is a federally registered
 trademark of Gaussian, Inc.
  
 This software contains proprietary and confidential information,
 including trade secrets, belonging to Gaussian, Inc.
  
 This software is provided under written license and may be
 used, copied, transmitted, or stored only in accord with that
 written license.
  
 The following legend is applicable only to US Government
 contracts under FAR:
  
                    RESTRICTED RIGHTS LEGEND
  
 Use, reproduction and disclosure by the US Government is
 subject to restrictions as set forth in subparagraphs (a)
 and (c) of the Commercial Computer Software - Restricted
 Rights clause in FAR 52.227-19.
  
 Gaussian, Inc.
 340 Quinnipiac St., Bldg. 40, Wallingford CT 06492
  
  
 ---------------------------------------------------------------
 Warning -- This program may not be used in any manner that
 competes with the business of Gaussian, Inc. or will provide
 assistance to any competitor of Gaussian, Inc.  The licensee
 of this program is prohibited from giving any competitor of
 Gaussian, Inc. access to this program.  By using this program,
 the user acknowledges that Gaussian, Inc. is engaged in the
 business of creating and licensing software in the field of
 computational chemistry and represents and warrants to the
 licensee that it is not a competitor of Gaussian, Inc. and that
 it will not use this program in any manner prohibited above.
 ---------------------------------------------------------------
  

 Cite this work as:
 Gaussian 09, Revision C.01,
 M. J. Frisch, G. W. Trucks, H. B. Schlegel, G. E. Scuseria, 
 M. A. Robb, J. R. Cheeseman, G. Scalmani, V. Barone, B. Mennucci, 
 G. A. Petersson, H. Nakatsuji, M. Caricato, X. Li, H. P. Hratchian, 
 A. F. Izmaylov, J. Bloino, G. Zheng, J. L. Sonnenberg, M. Hada, 
 M. Ehara, K. Toyota, R. Fukuda, J. Hasegawa, M. Ishida, T. Nakajima, 
 Y. Honda, O. Kitao, H. Nakai, T. Vreven, J. A. Montgomery, Jr., 
 J. E. Peralta, F. Ogliaro, M. Bearpark, J. J. Heyd, E. Brothers, 
 K. N. Kudin, V. N. Staroverov, T. Keith, R. Kobayashi, J. Normand, 
 K. Raghavachari, A. Rendell, J. C. Burant, S. S. Iyengar, J. Tomasi, 
 M. Cossi, N. Rega, J. M. Millam, M. Klene, J. E. Knox, J. B. Cross, 
 V. Bakken, C. Adamo, J. Jaramillo, R. Gomperts, R. E. Stratmann, 
 O. Yazyev, A. J. Austin, R. Cammi, C. Pomelli, J. W. Ochterski, 
 R. L. Martin, K. Morokuma, V. G. Zakrzewski, G. A. Voth, 
 P. Salvador, J. J. Dannenberg, S. Dapprich, A. D. Daniels, 
 O. Farkas, J. B. Foresman, J. V. Ortiz, J. Cioslowski, 
 and D. J. Fox, Gaussian, Inc., Wallingford CT, 2010.
 
 ******************************************
 Gaussian 09:  EM64L-G09RevC.01 23-Sep-2011
                24-Apr-2026 
 ******************************************
 %nprocshared=8
 Will use up to    8 processors via shared memory.
 %mem=14GB
 -----------------------------------
 # opt=modredundant b3lyp/6-31g(d,p)
 -----------------------------------
 1/14=-1,18=120,19=15,26=3,38=1/1,3;
 2/9=110,12=2,17=6,18=5,40=1/2;
 3/5=1,6=6,7=101,11=2,16=1,25=1,30=1,71=1,74=-5/1,2,3;
 4//1;
 5/5=2,38=5/2;
 6/7=2,8=2,9=2,10=2,28=1/1;
 7//1,2,3,16;
 1/14=-1,18=20,19=15/3(2);
 2/9=110/2;
 99//99;
 2/9=110/2;
 3/5=1,6=6,7=101,11=2,16=1,25=1,30=1,71=1,74=-5/1,2,3;
 4/5=5,16=3/1;
 5/5=2,38=5/2;
 7//1,2,3,16;
 1/14=-1,18=20,19=15/3(-5);
 2/9=110/2;
 6/7=2,8=2,9=2,10=2,19=2,28=1/1;
 99/9=1/99;
 ---------------
 QM dihedral opt
 ---------------
 Charge =  0 Multiplicity = 1
 Symbolic Z-Matrix:
 C                     2.21027   2.58689   0.56781 
 C                     0.89378   2.17989  -0.07814 
 O                     0.23502   2.99407  -0.71958 
 N                     0.45605   0.88478   0.12733 
 C                    -0.78601   0.50333  -0.52633 
 C                    -1.77769  -0.19116   0.42209 
 O                    -1.51878  -0.36521   1.609 
 N                    -2.95778  -0.61769  -0.13687 
 C                    -3.38315  -0.38019  -1.50663 
 C                    -3.92508  -1.30996   0.7036 
 H                     2.39089   3.62746   0.30108 
 H                     3.05297   1.97869   0.22624 
 H                     2.15793   2.50104   1.65794 
 H                    -1.21136   1.42748  -0.925 
 H                    -0.58677  -0.15703  -1.38259 
 H                    -2.65049   0.20063  -2.06235 
 H                    -3.54205  -1.32996  -2.03437 
 H                    -4.33104   0.17321  -1.52 
 H                    -4.17092  -2.28891   0.27388 
 H                    -3.49128  -1.44155   1.69292 
 H                    -4.85173  -0.72806   0.78724 
 C                     1.30824  -0.1695    0.67731 
 H                     1.96166   0.24689   1.44511 
 H                     0.67004  -0.8979    1.17684 
 C                     2.16553  -0.86591  -0.38447 
 H                     2.8274   -0.14067  -0.88866 
 H                     1.52814  -1.3139   -1.1663 
 O                     2.91941  -1.86215   0.27456 
 C                     3.75022  -2.59591  -0.60035 
 H                     4.2812   -3.33702   0.0014 
 H                     3.16762  -3.11827  -1.37552 
 H                     4.48811  -1.95032  -1.10222 
 
 The following ModRedundant input section has been read:
 D       2       4       5       6 F                                           
 D       4       5       6       8 S  36 10.000                                

 GradGradGradGradGradGradGradGradGradGradGradGradGradGradGradGradGradGrad
 Berny optimization.
 Initialization pass.
                           ----------------------------
                           !    Initial Parameters    !
                           ! (Angstroms and Degrees)  !
 --------------------------                            --------------------------
 ! Name  Definition              Value          Derivative Info.                !
 --------------------------------------------------------------------------------
 ! R1    R(1,2)                  1.5219         estimate D2E/DX2                !
 ! R2    R(1,11)                 1.0893         estimate D2E/DX2                !
 ! R3    R(1,12)                 1.094          estimate D2E/DX2                !
 ! R4    R(1,13)                 1.0948         estimate D2E/DX2                !
 ! R5    R(2,3)                  1.2281         estimate D2E/DX2                !
 ! R6    R(2,4)                  1.3824         estimate D2E/DX2                !
 ! R7    R(4,5)                  1.4545         estimate D2E/DX2                !
 ! R8    R(4,22)                 1.4629         estimate D2E/DX2                !
 ! R9    R(5,6)                  1.5379         estimate D2E/DX2                !
 ! R10   R(5,14)                 1.0927         estimate D2E/DX2                !
 ! R11   R(5,15)                 1.0995         estimate D2E/DX2                !
 ! R12   R(6,7)                  1.2272         estimate D2E/DX2                !
 ! R13   R(6,8)                  1.3737         estimate D2E/DX2                !
 ! R14   R(8,9)                  1.4538         estimate D2E/DX2                !
 ! R15   R(8,10)                 1.4565         estimate D2E/DX2                !
 ! R16   R(9,16)                 1.0876         estimate D2E/DX2                !
 ! R17   R(9,17)                 1.0981         estimate D2E/DX2                !
 ! R18   R(9,18)                 1.0977         estimate D2E/DX2                !
 ! R19   R(10,19)                1.097          estimate D2E/DX2                !
 ! R20   R(10,20)                1.0882         estimate D2E/DX2                !
 ! R21   R(10,21)                1.0974         estimate D2E/DX2                !
 ! R22   R(22,23)                1.0908         estimate D2E/DX2                !
 ! R23   R(22,24)                1.0897         estimate D2E/DX2                !
 ! R24   R(22,25)                1.5321         estimate D2E/DX2                !
 ! R25   R(25,26)                1.1037         estimate D2E/DX2                !
 ! R26   R(25,27)                1.1037         estimate D2E/DX2                !
 ! R27   R(25,28)                1.4125         estimate D2E/DX2                !
 ! R28   R(28,29)                1.4121         estimate D2E/DX2                !
 ! R29   R(29,30)                1.0924         estimate D2E/DX2                !
 ! R30   R(29,31)                1.1014         estimate D2E/DX2                !
 ! R31   R(29,32)                1.1014         estimate D2E/DX2                !
 ! A1    A(2,1,11)             107.1566         estimate D2E/DX2                !
 ! A2    A(2,1,12)             112.6533         estimate D2E/DX2                !
 ! A3    A(2,1,13)             111.1202         estimate D2E/DX2                !
 ! A4    A(11,1,12)            109.0817         estimate D2E/DX2                !
 ! A5    A(11,1,13)            109.067          estimate D2E/DX2                !
 ! A6    A(12,1,13)            107.7068         estimate D2E/DX2                !
 ! A7    A(1,2,3)              120.5571         estimate D2E/DX2                !
 ! A8    A(1,2,4)              117.476          estimate D2E/DX2                !
 ! A9    A(3,2,4)              121.9273         estimate D2E/DX2                !
 ! A10   A(2,4,5)              116.6988         estimate D2E/DX2                !
 ! A11   A(2,4,22)             123.1311         estimate D2E/DX2                !
 ! A12   A(5,4,22)             118.5155         estimate D2E/DX2                !
 ! A13   A(4,5,6)              113.0745         estimate D2E/DX2                !
 ! A14   A(4,5,14)             105.9371         estimate D2E/DX2                !
 ! A15   A(4,5,15)             110.6557         estimate D2E/DX2                !
 ! A16   A(6,5,14)             110.8498         estimate D2E/DX2                !
 ! A17   A(6,5,15)             109.019          estimate D2E/DX2                !
 ! A18   A(14,5,15)            107.1199         estimate D2E/DX2                !
 ! A19   A(5,6,7)              121.6301         estimate D2E/DX2                !
 ! A20   A(5,6,8)              116.31           estimate D2E/DX2                !
 ! A21   A(7,6,8)              122.0556         estimate D2E/DX2                !
 ! A22   A(6,8,9)              125.7332         estimate D2E/DX2                !
 ! A23   A(6,8,10)             118.9026         estimate D2E/DX2                !
 ! A24   A(9,8,10)             115.2789         estimate D2E/DX2                !
 ! A25   A(8,9,16)             111.8105         estimate D2E/DX2                !
 ! A26   A(8,9,17)             110.7224         estimate D2E/DX2                !
 ! A27   A(8,9,18)             110.2737         estimate D2E/DX2                !
 ! A28   A(16,9,17)            108.2883         estimate D2E/DX2                !
 ! A29   A(16,9,18)            107.8332         estimate D2E/DX2                !
 ! A30   A(17,9,18)            107.773          estimate D2E/DX2                !
 ! A31   A(8,10,19)            110.3009         estimate D2E/DX2                !
 ! A32   A(8,10,20)            108.5022         estimate D2E/DX2                !
 ! A33   A(8,10,21)            110.6556         estimate D2E/DX2                !
 ! A34   A(19,10,20)           109.727          estimate D2E/DX2                !
 ! A35   A(19,10,21)           108.2886         estimate D2E/DX2                !
 ! A36   A(20,10,21)           109.3558         estimate D2E/DX2                !
 ! A37   A(4,22,23)            109.7838         estimate D2E/DX2                !
 ! A38   A(4,22,24)            108.2342         estimate D2E/DX2                !
 ! A39   A(4,22,25)            113.1401         estimate D2E/DX2                !
 ! A40   A(23,22,24)           106.4593         estimate D2E/DX2                !
 ! A41   A(23,22,25)           109.0339         estimate D2E/DX2                !
 ! A42   A(24,22,25)           109.9726         estimate D2E/DX2                !
 ! A43   A(22,25,26)           110.6987         estimate D2E/DX2                !
 ! A44   A(22,25,27)           110.6261         estimate D2E/DX2                !
 ! A45   A(22,25,28)           107.2112         estimate D2E/DX2                !
 ! A46   A(26,25,27)           106.8232         estimate D2E/DX2                !
 ! A47   A(26,25,28)           110.8859         estimate D2E/DX2                !
 ! A48   A(27,25,28)           110.6362         estimate D2E/DX2                !
 ! A49   A(25,28,29)           113.0431         estimate D2E/DX2                !
 ! A50   A(28,29,30)           107.2902         estimate D2E/DX2                !
 ! A51   A(28,29,31)           111.794          estimate D2E/DX2                !
 ! A52   A(28,29,32)           111.8325         estimate D2E/DX2                !
 ! A53   A(30,29,31)           108.8468         estimate D2E/DX2                !
 ! A54   A(30,29,32)           108.845          estimate D2E/DX2                !
 ! A55   A(31,29,32)           108.1593         estimate D2E/DX2                !
 ! D1    D(11,1,2,3)            -2.1775         estimate D2E/DX2                !
 ! D2    D(11,1,2,4)          -179.9341         estimate D2E/DX2                !
 ! D3    D(12,1,2,3)          -122.1502         estimate D2E/DX2                !
 ! D4    D(12,1,2,4)            60.0932         estimate D2E/DX2                !
 ! D5    D(13,1,2,3)           116.8846         estimate D2E/DX2                !
 ! D6    D(13,1,2,4)           -60.872          estimate D2E/DX2                !
 ! D7    D(1,2,4,5)           -178.4378         estimate D2E/DX2                !
 ! D8    D(1,2,4,22)           -13.3431         estimate D2E/DX2                !
 ! D9    D(3,2,4,5)              3.8385         estimate D2E/DX2                !
 ! D10   D(3,2,4,22)           168.9331         estimate D2E/DX2                !
 ! D11   D(2,4,5,6)           -131.3299         Frozen                          !
 ! D12   D(2,4,5,14)            -9.73           estimate D2E/DX2                !
 ! D13   D(2,4,5,15)           106.0439         estimate D2E/DX2                !
 ! D14   D(22,4,5,6)            62.8604         estimate D2E/DX2                !
 ! D15   D(22,4,5,14)         -175.5397         estimate D2E/DX2                !
 ! D16   D(22,4,5,15)          -59.7658         estimate D2E/DX2                !
 ! D17   D(2,4,22,23)           37.1993         estimate D2E/DX2                !
 ! D18   D(2,4,22,24)          153.0182         estimate D2E/DX2                !
 ! D19   D(2,4,22,25)          -84.8488         estimate D2E/DX2                !
 ! D20   D(5,4,22,23)         -157.9613         estimate D2E/DX2                !
 ! D21   D(5,4,22,24)          -42.1424         estimate D2E/DX2                !
 ! D22   D(5,4,22,25)           79.9907         estimate D2E/DX2                !
 ! D23   D(4,5,6,7)              1.2198         estimate D2E/DX2                !
 ! D24   D(4,5,6,8)           -178.0322         Scan                            !
 ! D25   D(14,5,6,7)          -117.5717         estimate D2E/DX2                !
 ! D26   D(14,5,6,8)            63.1763         estimate D2E/DX2                !
 ! D27   D(15,5,6,7)           124.7524         estimate D2E/DX2                !
 ! D28   D(15,5,6,8)           -54.4996         estimate D2E/DX2                !
 ! D29   D(5,6,8,9)             -4.9148         estimate D2E/DX2                !
 ! D30   D(5,6,8,10)           178.6133         estimate D2E/DX2                !
 ! D31   D(7,6,8,9)            175.8367         estimate D2E/DX2                !
 ! D32   D(7,6,8,10)            -0.6353         estimate D2E/DX2                !
 ! D33   D(6,8,9,16)            -0.6595         estimate D2E/DX2                !
 ! D34   D(6,8,9,17)           120.1888         estimate D2E/DX2                !
 ! D35   D(6,8,9,18)          -120.6243         estimate D2E/DX2                !
 ! D36   D(10,8,9,16)          175.925          estimate D2E/DX2                !
 ! D37   D(10,8,9,17)          -63.2267         estimate D2E/DX2                !
 ! D38   D(10,8,9,18)           55.9601         estimate D2E/DX2                !
 ! D39   D(6,8,10,19)         -124.184          estimate D2E/DX2                !
 ! D40   D(6,8,10,20)           -3.9653         estimate D2E/DX2                !
 ! D41   D(6,8,10,21)          116.0123         estimate D2E/DX2                !
 ! D42   D(9,8,10,19)           58.9827         estimate D2E/DX2                !
 ! D43   D(9,8,10,20)          179.2015         estimate D2E/DX2                !
 ! D44   D(9,8,10,21)          -60.8209         estimate D2E/DX2                !
 ! D45   D(4,22,25,26)          59.6345         estimate D2E/DX2                !
 ! D46   D(4,22,25,27)         -58.5815         estimate D2E/DX2                !
 ! D47   D(4,22,25,28)        -179.3            estimate D2E/DX2                !
 ! D48   D(23,22,25,26)        -62.8322         estimate D2E/DX2                !
 ! D49   D(23,22,25,27)        178.9518         estimate D2E/DX2                !
 ! D50   D(23,22,25,28)         58.2333         estimate D2E/DX2                !
 ! D51   D(24,22,25,26)       -179.2095         estimate D2E/DX2                !
 ! D52   D(24,22,25,27)         62.5745         estimate D2E/DX2                !
 ! D53   D(24,22,25,28)        -58.144          estimate D2E/DX2                !
 ! D54   D(22,25,28,29)        179.3667         estimate D2E/DX2                !
 ! D55   D(26,25,28,29)        -59.6862         estimate D2E/DX2                !
 ! D56   D(27,25,28,29)         58.6546         estimate D2E/DX2                !
 ! D57   D(25,28,29,30)       -179.706          estimate D2E/DX2                !
 ! D58   D(25,28,29,31)        -60.4419         estimate D2E/DX2                !
 ! D59   D(25,28,29,32)         61.0097         estimate D2E/DX2                !
 --------------------------------------------------------------------------------
 Trust Radius=3.00D-01 FncErr=1.00D-07 GrdErr=1.00D-06
 Number of optimizations in scan=  37
 Number of steps in this run=    155 maximum allowed number of steps=    192.
 GradGradGradGradGradGradGradGradGradGradGradGradGradGradGradGradGradGrad

                          Input orientation:                          
 ---------------------------------------------------------------------
 Center     Atomic      Atomic             Coordinates (Angstroms)
 Number     Number       Type             X           Y           Z
 ---------------------------------------------------------------------
      1          6           0        2.210268    2.586894    0.567811
      2          6           0        0.893784    2.179885   -0.078138
      3          8           0        0.235017    2.994069   -0.719582
      4          7           0        0.456046    0.884782    0.127328
      5          6           0       -0.786009    0.503330   -0.526332
      6          6           0       -1.777691   -0.191156    0.422087
      7          8           0       -1.518783   -0.365209    1.608996
      8          7           0       -2.957781   -0.617691   -0.136871
      9          6           0       -3.383154   -0.380186   -1.506626
     10          6           0       -3.925075   -1.309963    0.703599
     11          1           0        2.390886    3.627456    0.301079
     12          1           0        3.052969    1.978687    0.226237
     13          1           0        2.157930    2.501043    1.657941
     14          1           0       -1.211356    1.427479   -0.924996
     15          1           0       -0.586766   -0.157032   -1.382591
     16          1           0       -2.650487    0.200628   -2.062345
     17          1           0       -3.542046   -1.329963   -2.034366
     18          1           0       -4.331036    0.173213   -1.520004
     19          1           0       -4.170923   -2.288912    0.273883
     20          1           0       -3.491275   -1.441553    1.692920
     21          1           0       -4.851729   -0.728062    0.787239
     22          6           0        1.308235   -0.169501    0.677313
     23          1           0        1.961661    0.246885    1.445109
     24          1           0        0.670039   -0.897903    1.176838
     25          6           0        2.165528   -0.865905   -0.384471
     26          1           0        2.827399   -0.140672   -0.888659
     27          1           0        1.528140   -1.313901   -1.166303
     28          8           0        2.919414   -1.862152    0.274559
     29          6           0        3.750216   -2.595912   -0.600347
     30          1           0        4.281201   -3.337022    0.001397
     31          1           0        3.167618   -3.118274   -1.375515
     32          1           0        4.488114   -1.950323   -1.102219
 ---------------------------------------------------------------------
                    Distance matrix (angstroms):
                    1          2          3          4          5
     1  C    0.000000
     2  C    1.521853   0.000000
     3  O    2.392653   1.228137   0.000000
     4  N    2.483648   1.382434   2.283682   0.000000
     5  C    3.809995   2.415247   2.698818   1.454468   0.000000
     6  C    4.862367   3.606777   3.937012   2.496819   1.537935
     7  O    4.868758   3.891581   4.447790   2.767267   2.418872
     8  N    6.121656   4.760718   4.855751   3.739177   2.474866
     9  C    6.662824   5.185243   5.009610   4.359978   2.913201
    10  C    7.269551   6.000963   6.152764   4.933884   3.828119
    11  H    1.089283   2.116738   2.467934   3.360961   4.531825
    12  H    1.093953   2.189796   3.141087   2.819649   4.181004
    13  H    1.094757   2.171446   3.097303   2.802050   4.174767
    14  H    3.908993   2.390585   2.142054   2.045027   1.092659
    15  H    4.376825   3.058563   3.323303   2.110139   1.099525
    16  H    6.019878   4.518450   4.234673   3.861772   2.434593
    17  H    7.429819   5.985186   5.890001   5.055962   3.637426
    18  H    7.278289   5.779659   5.426485   5.112356   3.696428
    19  H    8.036136   6.763529   6.950480   5.612723   4.460337
    20  H    7.071198   5.956526   6.275361   4.841927   4.003263
    21  H    7.804414   6.497380   6.480722   5.586522   4.446558
    22  C    2.902304   2.502417   3.620951   1.462950   2.507453
    23  H    2.511394   2.682747   3.900539   2.100080   3.391465
    24  H    3.858371   3.331337   4.351218   2.079719   2.642786
    25  C    3.581992   3.314817   4.328807   2.499834   3.256762
    26  H    3.153058   3.127426   4.071318   2.776167   3.688189
    27  H    4.323037   3.713900   4.519993   2.767142   3.011175
    28  O    4.514742   4.534935   5.637126   3.692629   4.468455
    29  C    5.531502   5.589288   6.604448   4.847298   5.494371
    30  H    6.300982   6.474348   7.548121   5.698359   6.379923
    31  H    6.102620   5.909653   6.811104   5.063163   5.428471
    32  H    5.344522   5.570150   6.533166   5.080077   5.845377
                    6          7          8          9         10
     6  C    0.000000
     7  O    1.227225   0.000000
     8  N    1.373673   2.276514   0.000000
     9  C    2.516581   3.630868   1.453816   0.000000
    10  C    2.437670   2.739077   1.456464   2.458304   0.000000
    11  H    5.654509   5.739123   6.842610   7.257309   8.026923
    12  H    5.299231   5.320412   6.557602   7.070415   7.728919
    13  H    4.925889   4.662190   6.254466   7.001398   7.241373
    14  H    2.180676   3.119192   2.802474   2.884901   4.184517
    15  H    2.162482   3.140316   2.717671   2.808019   4.101920
    16  H    2.662268   3.883255   2.114598   1.087644   3.399545
    17  H    3.231716   4.277666   2.109309   1.098104   2.764700
    18  H    3.228630   4.241380   2.103429   1.097684   2.703521
    19  H    3.185923   3.537938   2.105567   2.726541   1.097013
    20  H    2.472828   2.248618   2.076415   3.372727   1.088235
    21  H    3.141865   3.451880   2.110261   2.745824   1.097402
    22  C    3.096538   2.983013   4.366081   5.179103   5.356200
    23  H    3.901437   3.537656   5.239376   6.137834   6.134107
    24  H    2.657164   2.293788   3.868518   4.888495   4.637760
    25  C    4.081029   4.218857   5.135291   5.681815   6.202945
    26  H    4.788262   5.017768   5.853293   6.245816   7.035512
    27  H    3.835630   4.229189   4.654882   5.010833   5.764903
    28  O    4.987664   4.870231   6.021576   6.714999   6.880118
    29  C    6.114407   6.133480   7.008951   7.524344   7.890756
    30  H    6.839856   6.712366   7.734128   8.352206   8.482041
    31  H    6.021252   6.200728   6.731097   7.101192   7.609139
    32  H    6.684197   6.778354   7.625559   8.036525   8.628603
                   11         12         13         14         15
    11  H    0.000000
    12  H    1.778312   0.000000
    13  H    1.778806   1.767407   0.000000
    14  H    4.395373   4.451251   4.379063   0.000000
    15  H    5.101324   4.516336   4.882986   1.763571   0.000000
    16  H    6.537917   6.397540   6.500255   2.206768   2.202029
    17  H    8.076508   7.716976   7.797401   3.777076   3.245652
    18  H    7.773826   7.799527   7.591100   3.414619   3.761317
    19  H    8.835241   8.390428   8.056902   4.899787   4.487204
    20  H    7.888719   7.528368   6.889035   4.503650   4.420965
    21  H    8.465362   8.374095   7.766631   4.564036   4.819144
    22  C    3.966178   2.803975   2.969077   3.386160   2.798998
    23  H    3.594621   2.382381   2.272674   4.132703   3.827991
    24  H    4.920075   3.854448   3.741405   3.655784   2.946036
    25  C    4.550940   3.041746   3.938000   4.117660   3.012286
    26  H    3.975526   2.405319   3.729882   4.332662   3.449748
    27  H    5.226332   3.886567   4.788192   3.883070   2.420321
    28  O    5.515056   3.843464   4.640159   5.415151   4.236376
    29  C    6.433557   4.700676   5.797775   6.396114   5.036810
    30  H    7.222676   5.460391   6.429263   7.329861   5.977028
    31  H    6.994223   5.343947   6.465141   6.327895   4.781674
    32  H    6.122028   4.388799   5.732617   6.627587   5.389704
                   16         17         18         19         20
    16  H    0.000000
    17  H    1.771544   0.000000
    18  H    1.766106   1.773869   0.000000
    19  H    3.737311   2.577418   3.050529   0.000000
    20  H    4.183981   3.729302   3.692634   1.787066   0.000000
    21  H    3.718610   3.168440   2.531163   1.778562   1.783301
    22  C    4.828478   5.676716   6.061933   5.888619   5.068024
    23  H    5.794505   6.699551   6.956677   6.738740   5.713733
    24  H    4.767071   5.314148   5.781954   5.117142   4.228289
    25  C    5.210255   5.959354   6.676417   6.527556   6.053622
    26  H    5.612598   6.580037   7.193074   7.412351   6.948560
    27  H    4.534050   5.143985   6.055292   5.958532   5.778060
    28  O    6.382788   6.882211   7.741588   7.103169   6.579178
    29  C    7.136321   7.538974   8.591883   7.975147   7.683151
    30  H    8.051230   8.329214   9.423749   8.521220   8.177129
    31  H    6.733290   6.975079   8.190517   7.567202   7.521140
    32  H    7.517184   8.107849   9.080824   8.774236   8.470083
                   21         22         23         24         25
    21  H    0.000000
    22  C    6.186213   0.000000
    23  H    6.914159   1.090804   0.000000
    24  H    5.538100   1.089674   1.746653   0.000000
    25  C    7.115743   1.532095   2.151099   2.162220   0.000000
    26  H    7.881793   2.181962   2.519162   3.081214   1.103740
    27  H    6.697930   2.181039   3.073022   2.529763   1.103732
    28  O    7.870176   2.371324   2.595287   2.608366   1.412506
    29  C    8.911101   3.671942   3.932469   3.940699   2.356006
    30  H    9.530720   4.396428   4.506546   4.513475   3.275879
    31  H    8.642948   4.045574   4.553520   4.205051   2.656975
    32  H    9.607114   4.055822   4.207085   4.569397   2.661866
                   26         27         28         29         30
    26  H    0.000000
    27  H    1.772463   0.000000
    28  O    2.079672   2.076609   0.000000
    29  C    2.638734   2.627067   1.412125   0.000000
    30  H    3.622484   3.610524   2.025913   1.092376   0.000000
    31  H    3.036263   2.446920   2.088586   1.101439   1.784322
    32  H    2.465445   3.028298   2.089046   1.101433   1.784297
                   31         32
    31  H    0.000000
    32  H    1.783959   0.000000
 Stoichiometry    C9H18N2O3
 Framework group  C1[X(C9H18N2O3)]
 Deg. of freedom    90
 Full point group                 C1      NOp   1
 Largest Abelian subgroup         C1      NOp   1
 Largest concise Abelian subgroup C1      NOp   1
                         Standard orientation:                         
 ---------------------------------------------------------------------
 Center     Atomic      Atomic             Coordinates (Angstroms)
 Number     Number       Type             X           Y           Z
 ---------------------------------------------------------------------
      1          6           0       -2.210268    2.586894   -0.567811
      2          6           0       -0.893784    2.179885    0.078138
      3          8           0       -0.235017    2.994069    0.719582
      4          7           0       -0.456046    0.884782   -0.127328
      5          6           0        0.786009    0.503330    0.526332
      6          6           0        1.777691   -0.191156   -0.422087
      7          8           0        1.518783   -0.365209   -1.608996
      8          7           0        2.957781   -0.617691    0.136871
      9          6           0        3.383154   -0.380186    1.506626
     10          6           0        3.925075   -1.309963   -0.703599
     11          1           0       -2.390886    3.627456   -0.301079
     12          1           0       -3.052969    1.978687   -0.226237
     13          1           0       -2.157930    2.501043   -1.657941
     14          1           0        1.211356    1.427479    0.924996
     15          1           0        0.586766   -0.157032    1.382591
     16          1           0        2.650487    0.200628    2.062345
     17          1           0        3.542046   -1.329963    2.034366
     18          1           0        4.331036    0.173213    1.520004
     19          1           0        4.170923   -2.288912   -0.273883
     20          1           0        3.491275   -1.441553   -1.692920
     21          1           0        4.851729   -0.728062   -0.787239
     22          6           0       -1.308235   -0.169501   -0.677313
     23          1           0       -1.961661    0.246885   -1.445109
     24          1           0       -0.670039   -0.897903   -1.176838
     25          6           0       -2.165528   -0.865905    0.384471
     26          1           0       -2.827399   -0.140672    0.888659
     27          1           0       -1.528140   -1.313901    1.166303
     28          8           0       -2.919414   -1.862152   -0.274559
     29          6           0       -3.750216   -2.595912    0.600347
     30          1           0       -4.281201   -3.337022   -0.001397
     31          1           0       -3.167618   -3.118274    1.375515
     32          1           0       -4.488114   -1.950323    1.102219
 ---------------------------------------------------------------------
 Rotational constants (GHZ):      0.7570817      0.3910341      0.2987073
 Standard basis: 6-31G(d,p) (6D, 7F)
 There are   300 symmetry adapted basis functions of A   symmetry.
 Integral buffers will be    131072 words long.
 Raffenetti 2 integral format.
 Two-electron integral symmetry is turned on.
   300 basis functions,   518 primitive gaussians,   300 cartesian basis functions
    55 alpha electrons       55 beta electrons
       nuclear repulsion energy       957.4901146892 Hartrees.
 NAtoms=   32 NActive=   32 NUniq=   32 SFac= 1.00D+00 NAtFMM=   60 NAOKFM=F Big=F
 One-electron integrals computed using PRISM.
 NBasis=   300 RedAO= T  NBF=   300
 NBsUse=   300 1.00D-06 NBFU=   300
 Harris functional with IExCor=  402 diagonalized for initial guess.
 ExpMin= 1.61D-01 ExpMax= 5.48D+03 ExpMxC= 8.25D+02 IAcc=1 IRadAn=         1 AccDes= 0.00D+00
 HarFok:  IExCor=  402 AccDes= 0.00D+00 IRadAn=         1 IDoV= 1
 ScaDFX=  1.000000  1.000000  1.000000  1.000000
 FoFCou: FMM=F IPFlag=           0 FMFlag=      100000 FMFlg1=           0
         NFxFlg=           0 DoJE=T BraDBF=F KetDBF=T FulRan=T
         Omega=  0.000000  0.000000  1.000000  0.000000  0.000000 ICntrl=     500 IOpCl=  0
         NMat0=    1 NMatS0=    1 NMatT0=    0 NMatD0=    1 NMtDS0=    0 NMtDT0=    0
         I1Cent=           4 NGrid=           0.
 Petite list used in FoFCou.
 Initial guess orbital symmetries:
       Occupied  (A) (A) (A) (A) (A) (A) (A) (A) (A) (A) (A) (A)
                 (A) (A) (A) (A) (A) (A) (A) (A) (A) (A) (A) (A)
                 (A) (A) (A) (A) (A) (A) (A) (A) (A) (A) (A) (A)
                 (A) (A) (A) (A) (A) (A) (A) (A) (A) (A) (A) (A)
                 (A) (A) (A) (A) (A) (A) (A)
       Virtual   (A) (A) (A) (A) (A) (A) (A) (A) (A) (A) (A) (A)
                 (A) (A) (A) (A) (A) (A) (A) (A) (A) (A) (A) (A)
                 (A) (A) (A) (A) (A) (A) (A) (A) (A) (A) (A) (A)
                 (A) (A) (A) (A) (A) (A) (A) (A) (A) (A) (A) (A)
                 (A) (A) (A) (A) (A) (A) (A) (A) (A) (A) (A) (A)
                 (A) (A) (A) (A) (A) (A) (A) (A) (A) (A) (A) (A)
                 (A) (A) (A) (A) (A) (A) (A) (A) (A) (A) (A) (A)
                 (A) (A) (A) (A) (A) (A) (A) (A) (A) (A) (A) (A)
                 (A) (A) (A) (A) (A) (A) (A) (A) (A) (A) (A) (A)
                 (A) (A) (A) (A) (A) (A) (A) (A) (A) (A) (A) (A)
                 (A) (A) (A) (A) (A) (A) (A) (A) (A) (A) (A) (A)
                 (A) (A) (A) (A) (A) (A) (A) (A) (A) (A) (A) (A)
                 (A) (A) (A) (A) (A) (A) (A) (A) (A) (A) (A) (A)
                 (A) (A) (A) (A) (A) (A) (A) (A) (A) (A) (A) (A)
                 (A) (A) (A) (A) (A) (A) (A) (A) (A) (A) (A) (A)
                 (A) (A) (A) (A) (A) (A) (A) (A) (A) (A) (A) (A)
                 (A) (A) (A) (A) (A) (A) (A) (A) (A) (A) (A) (A)
                 (A) (A) (A) (A) (A) (A) (A) (A) (A) (A) (A) (A)
                 (A) (A) (A) (A) (A) (A) (A) (A) (A) (A) (A) (A)
                 (A) (A) (A) (A) (A) (A) (A) (A) (A) (A) (A) (A)
                 (A) (A) (A) (A) (A)
 The electronic state of the initial guess is 1-A.
 Requested convergence on RMS density matrix=1.00D-08 within 128 cycles.
 Requested convergence on MAX density matrix=1.00D-06.
 Requested convergence on             energy=1.00D-06.
 No special actions if energy rises.
 Keep R1 ints in memory in canonical form, NReq=1033484936.
 Integral accuracy reduced to 1.0D-05 until final iterations.
 Initial convergence to 1.0D-05 achieved.  Increase integral accuracy.
 SCF Done:  E(RB3LYP) =  -688.995617212     A.U. after   14 cycles
             Convg  =    0.7379D-08             -V/T =  2.0093

 **********************************************************************

            Population analysis using the SCF density.

 **********************************************************************

 Orbital symmetries:
       Occupied  (A) (A) (A) (A) (A) (A) (A) (A) (A) (A) (A) (A)
                 (A) (A) (A) (A) (A) (A) (A) (A) (A) (A) (A) (A)
                 (A) (A) (A) (A) (A) (A) (A) (A) (A) (A) (A) (A)
                 (A) (A) (A) (A) (A) (A) (A) (A) (A) (A) (A) (A)
                 (A) (A) (A) (A) (A) (A) (A)
       Virtual   (A) (A) (A) (A) (A) (A) (A) (A) (A) (A) (A) (A)
                 (A) (A) (A) (A) (A) (A) (A) (A) (A) (A) (A) (A)
                 (A) (A) (A) (A) (A) (A) (A) (A) (A) (A) (A) (A)
                 (A) (A) (A) (A) (A) (A) (A) (A) (A) (A) (A) (A)
                 (A) (A) (A) (A) (A) (A) (A) (A) (A) (A) (A) (A)
                 (A) (A) (A) (A) (A) (A) (A) (A) (A) (A) (A) (A)
                 (A) (A) (A) (A) (A) (A) (A) (A) (A) (A) (A) (A)
                 (A) (A) (A) (A) (A) (A) (A) (A) (A) (A) (A) (A)
                 (A) (A) (A) (A) (A) (A) (A) (A) (A) (A) (A) (A)
                 (A) (A) (A) (A) (A) (A) (A) (A) (A) (A) (A) (A)
                 (A) (A) (A) (A) (A) (A) (A) (A) (A) (A) (A) (A)
                 (A) (A) (A) (A) (A) (A) (A) (A) (A) (A) (A) (A)
                 (A) (A) (A) (A) (A) (A) (A) (A) (A) (A) (A) (A)
                 (A) (A) (A) (A) (A) (A) (A) (A) (A) (A) (A) (A)
                 (A) (A) (A) (A) (A) (A) (A) (A) (A) (A) (A) (A)
                 (A) (A) (A) (A) (A) (A) (A) (A) (A) (A) (A) (A)
                 (A) (A) (A) (A) (A) (A) (A) (A) (A) (A) (A) (A)
                 (A) (A) (A) (A) (A) (A) (A) (A) (A) (A) (A) (A)
                 (A) (A) (A) (A) (A) (A) (A) (A) (A) (A) (A) (A)
                 (A) (A) (A) (A) (A) (A) (A) (A) (A) (A) (A) (A)
                 (A) (A) (A) (A) (A)
 The electronic state is 1-A.
 Alpha  occ. eigenvalues --  -19.15424 -19.11149 -19.10617 -14.36942 -14.36158
 Alpha  occ. eigenvalues --  -10.28794 -10.28239 -10.23727 -10.23243 -10.23165
 Alpha  occ. eigenvalues --  -10.22630 -10.21537 -10.21496 -10.18671  -1.03838
 Alpha  occ. eigenvalues --   -1.03475  -1.02476  -0.93579  -0.92821  -0.77110
 Alpha  occ. eigenvalues --   -0.75206  -0.73075  -0.71756  -0.68449  -0.66785
 Alpha  occ. eigenvalues --   -0.62327  -0.56243  -0.53339  -0.51179  -0.50210
 Alpha  occ. eigenvalues --   -0.49430  -0.48187  -0.47355  -0.46965  -0.46208
 Alpha  occ. eigenvalues --   -0.45193  -0.43351  -0.42627  -0.41552  -0.41000
 Alpha  occ. eigenvalues --   -0.40867  -0.40756  -0.39021  -0.38701  -0.38491
 Alpha  occ. eigenvalues --   -0.37597  -0.36043  -0.35087  -0.34753  -0.32477
 Alpha  occ. eigenvalues --   -0.26126  -0.25592  -0.24440  -0.24312  -0.23274
 Alpha virt. eigenvalues --    0.02516   0.02919   0.07367   0.08481   0.09364
 Alpha virt. eigenvalues --    0.10704   0.11732   0.13175   0.13517   0.14492
 Alpha virt. eigenvalues --    0.14599   0.15394   0.15742   0.16300   0.16443
 Alpha virt. eigenvalues --    0.16809   0.17441   0.18437   0.18825   0.19467
 Alpha virt. eigenvalues --    0.20368   0.21347   0.21964   0.22475   0.22758
 Alpha virt. eigenvalues --    0.23725   0.25863   0.28218   0.29146   0.33825
 Alpha virt. eigenvalues --    0.34685   0.38252   0.40387   0.48132   0.49242
 Alpha virt. eigenvalues --    0.49726   0.50259   0.51315   0.51552   0.52665
 Alpha virt. eigenvalues --    0.54157   0.55211   0.55879   0.56023   0.57504
 Alpha virt. eigenvalues --    0.59629   0.59931   0.61508   0.64196   0.65325
 Alpha virt. eigenvalues --    0.66528   0.68065   0.68318   0.69020   0.71073
 Alpha virt. eigenvalues --    0.73086   0.73357   0.75009   0.75494   0.76968
 Alpha virt. eigenvalues --    0.78050   0.79460   0.80002   0.81870   0.82024
 Alpha virt. eigenvalues --    0.83427   0.83971   0.84974   0.85683   0.85841
 Alpha virt. eigenvalues --    0.86604   0.87194   0.87960   0.89653   0.89925
 Alpha virt. eigenvalues --    0.91041   0.91762   0.92848   0.93640   0.94315
 Alpha virt. eigenvalues --    0.96142   0.96720   0.98428   0.98533   1.01993
 Alpha virt. eigenvalues --    1.02252   1.03154   1.05001   1.06208   1.11513
 Alpha virt. eigenvalues --    1.13100   1.15953   1.18178   1.18668   1.21942
 Alpha virt. eigenvalues --    1.27061   1.28368   1.30074   1.31369   1.32115
 Alpha virt. eigenvalues --    1.33391   1.36039   1.37031   1.38079   1.38905
 Alpha virt. eigenvalues --    1.40290   1.44799   1.48390   1.49494   1.52264
 Alpha virt. eigenvalues --    1.58838   1.59208   1.61151   1.62636   1.64060
 Alpha virt. eigenvalues --    1.69012   1.70167   1.71497   1.72075   1.72954
 Alpha virt. eigenvalues --    1.75250   1.76249   1.77355   1.79651   1.81410
 Alpha virt. eigenvalues --    1.83758   1.84681   1.86609   1.87460   1.88030
 Alpha virt. eigenvalues --    1.88577   1.89889   1.90835   1.91994   1.92823
 Alpha virt. eigenvalues --    1.95626   1.97479   1.97960   1.99234   2.00404
 Alpha virt. eigenvalues --    2.00875   2.01951   2.02147   2.02694   2.02861
 Alpha virt. eigenvalues --    2.03149   2.03243   2.03985   2.05255   2.06768
 Alpha virt. eigenvalues --    2.07674   2.08470   2.10032   2.10769   2.11131
 Alpha virt. eigenvalues --    2.13259   2.14493   2.15304   2.15987   2.19465
 Alpha virt. eigenvalues --    2.21868   2.24722   2.25784   2.26881   2.29506
 Alpha virt. eigenvalues --    2.31218   2.32956   2.36128   2.38096   2.40204
 Alpha virt. eigenvalues --    2.42191   2.43089   2.45446   2.49159   2.50790
 Alpha virt. eigenvalues --    2.51587   2.52839   2.53641   2.56054   2.57414
 Alpha virt. eigenvalues --    2.58373   2.59896   2.60933   2.63222   2.64412
 Alpha virt. eigenvalues --    2.65811   2.67296   2.68510   2.69229   2.70466
 Alpha virt. eigenvalues --    2.71006   2.71881   2.75941   2.77970   2.79242
 Alpha virt. eigenvalues --    2.81121   2.82886   2.83146   2.84848   2.86282
 Alpha virt. eigenvalues --    2.88108   2.89145   2.89562   2.90523   2.92969
 Alpha virt. eigenvalues --    2.95596   2.97796   2.98497   3.04957   3.06353
 Alpha virt. eigenvalues --    3.12201   3.14359   3.14792   3.17235   3.18049
 Alpha virt. eigenvalues --    3.22778   3.26848   3.28157   3.31966   3.36966
 Alpha virt. eigenvalues --    3.37453   3.39119   3.41910   3.42656   3.43211
 Alpha virt. eigenvalues --    3.43717   3.44117   3.46037   3.48131   3.49452
 Alpha virt. eigenvalues --    3.56285   3.94970   4.00164   4.07916   4.12737
 Alpha virt. eigenvalues --    4.17642   4.31085   4.37615   4.39613   4.45398
 Alpha virt. eigenvalues --    4.49223   4.51447   4.61332   4.68207   4.71623
          Condensed to atoms (all electrons):
              1          2          3          4          5          6
     1  C    5.152685   0.350044  -0.080626  -0.119912   0.005313  -0.000074
     2  C    0.350044   4.363727   0.586047   0.260148  -0.027332   0.001709
     3  O   -0.080626   0.586047   8.076002  -0.097131  -0.016406   0.000184
     4  N   -0.119912   0.260148  -0.097131   7.080814   0.275738  -0.037826
     5  C    0.005313  -0.027332  -0.016406   0.275738   5.118004   0.297353
     6  C   -0.000074   0.001709   0.000184  -0.037826   0.297353   4.420772
     7  O   -0.000018   0.000443  -0.000003   0.001148  -0.087280   0.571574
     8  N    0.000001  -0.000024  -0.000005   0.002658  -0.111819   0.274207
     9  C    0.000000   0.000010   0.000009   0.000330  -0.000417  -0.027674
    10  C    0.000000   0.000001   0.000000  -0.000074   0.005372  -0.026218
    11  H    0.367713  -0.023459   0.005285   0.004677  -0.000112   0.000001
    12  H    0.359551  -0.020610   0.001847   0.000796  -0.000257  -0.000009
    13  H    0.364748  -0.021614   0.001176   0.002837  -0.000121   0.000025
    14  H    0.001700  -0.003929   0.035233  -0.040726   0.359610  -0.017478
    15  H   -0.000139   0.000287   0.001178  -0.046257   0.365108  -0.040397
    16  H   -0.000001  -0.000027  -0.000060   0.000138   0.009131  -0.009935
    17  H    0.000000   0.000000   0.000000  -0.000006  -0.000355   0.001388
    18  H    0.000000   0.000000   0.000000  -0.000006  -0.000306   0.000511
    19  H    0.000000   0.000000   0.000000   0.000001  -0.000121   0.001750
    20  H    0.000000   0.000000   0.000000  -0.000010   0.001183  -0.002793
    21  H    0.000000   0.000000   0.000000   0.000001  -0.000102   0.000258
    22  C    0.000588  -0.026092   0.002504   0.258598  -0.043811  -0.002788
    23  H    0.007837  -0.009412   0.000068  -0.029431   0.004707  -0.000020
    24  H   -0.000260   0.003084  -0.000088  -0.030849  -0.007300   0.003847
    25  C   -0.002402  -0.001697   0.000009  -0.055406  -0.003449  -0.000237
    26  H   -0.001071   0.003309  -0.000104   0.002415  -0.000070   0.000002
    27  H    0.000155  -0.000375  -0.000001   0.000652   0.001199   0.000125
    28  O    0.000014   0.000015   0.000000   0.002161  -0.000013   0.000005
    29  C    0.000001  -0.000004   0.000000  -0.000132   0.000000   0.000000
    30  H    0.000000   0.000000   0.000000   0.000001   0.000000   0.000000
    31  H    0.000000   0.000000   0.000000   0.000010  -0.000003   0.000000
    32  H   -0.000002   0.000000   0.000000   0.000009   0.000000   0.000000
              7          8          9         10         11         12
     1  C   -0.000018   0.000001   0.000000   0.000000   0.367713   0.359551
     2  C    0.000443  -0.000024   0.000010   0.000001  -0.023459  -0.020610
     3  O   -0.000003  -0.000005   0.000009   0.000000   0.005285   0.001847
     4  N    0.001148   0.002658   0.000330  -0.000074   0.004677   0.000796
     5  C   -0.087280  -0.111819  -0.000417   0.005372  -0.000112  -0.000257
     6  C    0.571574   0.274207  -0.027674  -0.026218   0.000001  -0.000009
     7  O    8.095341  -0.091780   0.002693  -0.012459   0.000000   0.000001
     8  N   -0.091780   7.017847   0.299769   0.291884   0.000000   0.000000
     9  C    0.002693   0.299769   4.806175  -0.051594   0.000000   0.000000
    10  C   -0.012459   0.291884  -0.051594   4.818746   0.000000   0.000000
    11  H    0.000000   0.000000   0.000000   0.000000   0.548284  -0.023245
    12  H    0.000001   0.000000   0.000000   0.000000  -0.023245   0.583065
    13  H    0.000002   0.000000   0.000000   0.000000  -0.021434  -0.028562
    14  H    0.000619   0.000482  -0.001692  -0.000139  -0.000040  -0.000050
    15  H    0.001356   0.003696  -0.002208  -0.000280   0.000004   0.000026
    16  H    0.000072  -0.027861   0.385460   0.004260   0.000000   0.000000
    17  H   -0.000030  -0.046344   0.382878  -0.002094   0.000000   0.000000
    18  H   -0.000029  -0.044533   0.384014  -0.002633   0.000000   0.000000
    19  H    0.000694  -0.045659  -0.001450   0.385001   0.000000   0.000000
    20  H    0.024122  -0.035813   0.004311   0.383645   0.000000   0.000000
    21  H    0.000609  -0.044627  -0.002197   0.387826   0.000000   0.000000
    22  C   -0.007715   0.000083   0.000002  -0.000004   0.000290  -0.000053
    23  H    0.000195  -0.000004   0.000000   0.000000   0.000054  -0.002492
    24  H    0.017310  -0.000215  -0.000015   0.000029  -0.000007   0.000162
    25  C    0.000405   0.000035  -0.000003   0.000000   0.000016   0.000020
    26  H   -0.000008   0.000000   0.000000   0.000000  -0.000041   0.004091
    27  H    0.000060  -0.000027  -0.000001   0.000000   0.000000  -0.000104
    28  O    0.000000   0.000000   0.000000   0.000000   0.000000  -0.000079
    29  C    0.000000   0.000000   0.000000   0.000000   0.000000  -0.000004
    30  H    0.000000   0.000000   0.000000   0.000000   0.000000   0.000000
    31  H    0.000000   0.000000   0.000000   0.000000   0.000000   0.000000
    32  H    0.000000   0.000000   0.000000   0.000000   0.000000   0.000007
             13         14         15         16         17         18
     1  C    0.364748   0.001700  -0.000139  -0.000001   0.000000   0.000000
     2  C   -0.021614  -0.003929   0.000287  -0.000027   0.000000   0.000000
     3  O    0.001176   0.035233   0.001178  -0.000060   0.000000   0.000000
     4  N    0.002837  -0.040726  -0.046257   0.000138  -0.000006  -0.000006
     5  C   -0.000121   0.359610   0.365108   0.009131  -0.000355  -0.000306
     6  C    0.000025  -0.017478  -0.040397  -0.009935   0.001388   0.000511
     7  O    0.000002   0.000619   0.001356   0.000072  -0.000030  -0.000029
     8  N    0.000000   0.000482   0.003696  -0.027861  -0.046344  -0.044533
     9  C    0.000000  -0.001692  -0.002208   0.385460   0.382878   0.384014
    10  C    0.000000  -0.000139  -0.000280   0.004260  -0.002094  -0.002633
    11  H   -0.021434  -0.000040   0.000004   0.000000   0.000000   0.000000
    12  H   -0.028562  -0.000050   0.000026   0.000000   0.000000   0.000000
    13  H    0.563703  -0.000061  -0.000009   0.000000   0.000000   0.000000
    14  H   -0.000061   0.515715  -0.029907   0.000587  -0.000018   0.000255
    15  H   -0.000009  -0.029907   0.626085   0.000321   0.000378   0.000113
    16  H    0.000000   0.000587   0.000321   0.560603  -0.028809  -0.026937
    17  H    0.000000  -0.000018   0.000378  -0.028809   0.616783  -0.047285
    18  H    0.000000   0.000255   0.000113  -0.026937  -0.047285   0.608216
    19  H    0.000000  -0.000007   0.000029  -0.000011   0.006544  -0.002104
    20  H    0.000000  -0.000017  -0.000046  -0.000239  -0.000046  -0.000069
    21  H    0.000000   0.000021  -0.000010   0.000015  -0.001795   0.007332
    22  C   -0.003509   0.004087  -0.000187   0.000011  -0.000001   0.000000
    23  H    0.001686  -0.000178  -0.000136   0.000000   0.000000   0.000000
    24  H    0.000114   0.000138  -0.001906  -0.000003   0.000004  -0.000001
    25  C    0.000170  -0.000027   0.002854  -0.000001   0.000000   0.000000
    26  H    0.000060  -0.000021  -0.000245   0.000000   0.000000   0.000000
    27  H   -0.000009  -0.000024   0.002736  -0.000007   0.000001   0.000000
    28  O   -0.000007   0.000000  -0.000096   0.000000   0.000000   0.000000
    29  C    0.000000   0.000000   0.000006   0.000000   0.000000   0.000000
    30  H    0.000000   0.000000   0.000000   0.000000   0.000000   0.000000
    31  H    0.000000   0.000000   0.000004   0.000000   0.000000   0.000000
    32  H    0.000000   0.000000   0.000000   0.000000   0.000000   0.000000
             19         20         21         22         23         24
     1  C    0.000000   0.000000   0.000000   0.000588   0.007837  -0.000260
     2  C    0.000000   0.000000   0.000000  -0.026092  -0.009412   0.003084
     3  O    0.000000   0.000000   0.000000   0.002504   0.000068  -0.000088
     4  N    0.000001  -0.000010   0.000001   0.258598  -0.029431  -0.030849
     5  C   -0.000121   0.001183  -0.000102  -0.043811   0.004707  -0.007300
     6  C    0.001750  -0.002793   0.000258  -0.002788  -0.000020   0.003847
     7  O    0.000694   0.024122   0.000609  -0.007715   0.000195   0.017310
     8  N   -0.045659  -0.035813  -0.044627   0.000083  -0.000004  -0.000215
     9  C   -0.001450   0.004311  -0.002197   0.000002   0.000000  -0.000015
    10  C    0.385001   0.383645   0.387826  -0.000004   0.000000   0.000029
    11  H    0.000000   0.000000   0.000000   0.000290   0.000054  -0.000007
    12  H    0.000000   0.000000   0.000000  -0.000053  -0.002492   0.000162
    13  H    0.000000   0.000000   0.000000  -0.003509   0.001686   0.000114
    14  H   -0.000007  -0.000017   0.000021   0.004087  -0.000178   0.000138
    15  H    0.000029  -0.000046  -0.000010  -0.000187  -0.000136  -0.001906
    16  H   -0.000011  -0.000239   0.000015   0.000011   0.000000  -0.000003
    17  H    0.006544  -0.000046  -0.001795  -0.000001   0.000000   0.000004
    18  H   -0.002104  -0.000069   0.007332   0.000000   0.000000  -0.000001
    19  H    0.614211  -0.023801  -0.044943   0.000000   0.000000   0.000002
    20  H   -0.023801   0.512363  -0.025049  -0.000002   0.000000   0.000011
    21  H   -0.044943  -0.025049   0.608708   0.000000   0.000000  -0.000001
    22  C    0.000000  -0.000002   0.000000   4.917612   0.376880   0.374807
    23  H    0.000000   0.000000   0.000000   0.376880   0.594042  -0.025572
    24  H    0.000002   0.000011  -0.000001   0.374807  -0.025572   0.552013
    25  C    0.000000   0.000000   0.000000   0.351000  -0.045177  -0.044171
    26  H    0.000000   0.000000   0.000000  -0.038126  -0.008563   0.005929
    27  H    0.000000   0.000000   0.000000  -0.039818   0.006558  -0.007130
    28  O    0.000000   0.000000   0.000000  -0.039754   0.005500   0.005471
    29  C    0.000000   0.000000   0.000000   0.004310  -0.000107  -0.000105
    30  H    0.000000   0.000000   0.000000  -0.000244   0.000008   0.000007
    31  H    0.000000   0.000000   0.000000   0.000050   0.000051  -0.000055
    32  H    0.000000   0.000000   0.000000   0.000032  -0.000066   0.000043
             25         26         27         28         29         30
     1  C   -0.002402  -0.001071   0.000155   0.000014   0.000001   0.000000
     2  C   -0.001697   0.003309  -0.000375   0.000015  -0.000004   0.000000
     3  O    0.000009  -0.000104  -0.000001   0.000000   0.000000   0.000000
     4  N   -0.055406   0.002415   0.000652   0.002161  -0.000132   0.000001
     5  C   -0.003449  -0.000070   0.001199  -0.000013   0.000000   0.000000
     6  C   -0.000237   0.000002   0.000125   0.000005   0.000000   0.000000
     7  O    0.000405  -0.000008   0.000060   0.000000   0.000000   0.000000
     8  N    0.000035   0.000000  -0.000027   0.000000   0.000000   0.000000
     9  C   -0.000003   0.000000  -0.000001   0.000000   0.000000   0.000000
    10  C    0.000000   0.000000   0.000000   0.000000   0.000000   0.000000
    11  H    0.000016  -0.000041   0.000000   0.000000   0.000000   0.000000
    12  H    0.000020   0.004091  -0.000104  -0.000079  -0.000004   0.000000
    13  H    0.000170   0.000060  -0.000009  -0.000007   0.000000   0.000000
    14  H   -0.000027  -0.000021  -0.000024   0.000000   0.000000   0.000000
    15  H    0.002854  -0.000245   0.002736  -0.000096   0.000006   0.000000
    16  H   -0.000001   0.000000  -0.000007   0.000000   0.000000   0.000000
    17  H    0.000000   0.000000   0.000001   0.000000   0.000000   0.000000
    18  H    0.000000   0.000000   0.000000   0.000000   0.000000   0.000000
    19  H    0.000000   0.000000   0.000000   0.000000   0.000000   0.000000
    20  H    0.000000   0.000000   0.000000   0.000000   0.000000   0.000000
    21  H    0.000000   0.000000   0.000000   0.000000   0.000000   0.000000
    22  C    0.351000  -0.038126  -0.039818  -0.039754   0.004310  -0.000244
    23  H   -0.045177  -0.008563   0.006558   0.005500  -0.000107   0.000008
    24  H   -0.044171   0.005929  -0.007130   0.005471  -0.000105   0.000007
    25  C    4.804088   0.356438   0.361618   0.233035  -0.033960   0.005431
    26  H    0.356438   0.695613  -0.063482  -0.039097  -0.006435  -0.000114
    27  H    0.361618  -0.063482   0.695090  -0.039150  -0.006470  -0.000109
    28  O    0.233035  -0.039097  -0.039150   8.201920   0.258886  -0.032847
    29  C   -0.033960  -0.006435  -0.006470   0.258886   4.708583   0.394777
    30  H    0.005431  -0.000114  -0.000109  -0.032847   0.394777   0.584721
    31  H   -0.009436  -0.002723   0.013801  -0.037583   0.369572  -0.034766
    32  H   -0.009185   0.013389  -0.002818  -0.037600   0.370085  -0.035080
             31         32
     1  C    0.000000  -0.000002
     2  C    0.000000   0.000000
     3  O    0.000000   0.000000
     4  N    0.000010   0.000009
     5  C   -0.000003   0.000000
     6  C    0.000000   0.000000
     7  O    0.000000   0.000000
     8  N    0.000000   0.000000
     9  C    0.000000   0.000000
    10  C    0.000000   0.000000
    11  H    0.000000   0.000000
    12  H    0.000000   0.000007
    13  H    0.000000   0.000000
    14  H    0.000000   0.000000
    15  H    0.000004   0.000000
    16  H    0.000000   0.000000
    17  H    0.000000   0.000000
    18  H    0.000000   0.000000
    19  H    0.000000   0.000000
    20  H    0.000000   0.000000
    21  H    0.000000   0.000000
    22  C    0.000050   0.000032
    23  H    0.000051  -0.000066
    24  H   -0.000055   0.000043
    25  C   -0.009436  -0.009185
    26  H   -0.002723   0.013389
    27  H    0.013801  -0.002818
    28  O   -0.037583  -0.037600
    29  C    0.369572   0.370085
    30  H   -0.034766  -0.035080
    31  H    0.662841  -0.052874
    32  H   -0.052874   0.662178
 Mulliken atomic charges:
              1
     1  C   -0.405846
     2  C    0.565752
     3  O   -0.515119
     4  N   -0.435366
     5  C   -0.143447
     6  C    0.591739
     7  O   -0.517324
     8  N   -0.441951
     9  C   -0.178401
    10  C   -0.181269
    11  H    0.142013
    12  H    0.125899
    13  H    0.140805
    14  H    0.175868
    15  H    0.117642
    16  H    0.133293
    17  H    0.118808
    18  H    0.123462
    19  H    0.109863
    20  H    0.162251
    21  H    0.113952
    22  C   -0.088751
    23  H    0.123574
    24  H    0.154708
    25  C    0.090035
    26  H    0.078854
    27  H    0.077529
    28  O   -0.480781
    29  C   -0.059004
    30  H    0.118217
    31  H    0.091111
    32  H    0.091883
 Sum of Mulliken atomic charges =   0.00000
 Mulliken charges with hydrogens summed into heavy atoms:
              1
     1  C    0.002871
     2  C    0.565752
     3  O   -0.515119
     4  N   -0.435366
     5  C    0.150063
     6  C    0.591739
     7  O   -0.517324
     8  N   -0.441951
     9  C    0.197161
    10  C    0.204798
    22  C    0.189532
    25  C    0.246418
    28  O   -0.480781
    29  C    0.242207
 Sum of Mulliken charges with hydrogens summed into heavy atoms =   0.00000
 Electronic spatial extent (au):  <R**2>=           3918.1819
 Charge=              0.0000 electrons
 Dipole moment (field-independent basis, Debye):
    X=              0.2951    Y=             -2.7557    Z=              2.6562  Tot=              3.8388
 Quadrupole moment (field-independent basis, Debye-Ang):
   XX=            -67.4013   YY=            -92.4341   ZZ=            -87.6158
   XY=             -3.0792   XZ=              3.1433   YZ=             -7.5731
 Traceless Quadrupole moment (field-independent basis, Debye-Ang):
   XX=             15.0824   YY=             -9.9504   ZZ=             -5.1320
   XY=             -3.0792   XZ=              3.1433   YZ=             -7.5731
 Octapole moment (field-independent basis, Debye-Ang**2):
  XXX=             23.7640  YYY=            -42.6191  ZZZ=              4.1880  XYY=            -13.3112
  XXY=            -13.0037  XXZ=             16.7547  XZZ=             -1.2174  YZZ=             -1.5544
  YYZ=            -12.4348  XYZ=             10.3228
 Hexadecapole moment (field-independent basis, Debye-Ang**3):
 XXXX=          -2910.6825 YYYY=          -1515.4403 ZZZZ=           -454.7494 XXXY=             26.8684
 XXXZ=            -24.7732 YYYX=             22.4880 YYYZ=            -46.5972 ZZZX=             19.6526
 ZZZY=              3.2282 XXYY=           -683.0428 XXZZ=           -592.8222 YYZZ=           -319.3024
 XXYZ=            -14.1918 YYXZ=             -8.3949 ZZXY=              0.0839
 N-N= 9.574901146892D+02 E-N=-3.520767890971D+03  KE= 6.826151421321D+02
 Calling FoFJK, ICntrl=      2127 FMM=F ISym2X=0 I1Cent= 0 IOpClX= 0 NMat=1 NMatS=1 NMatT=0.
 ***** Axes restored to original set *****
 -------------------------------------------------------------------
 Center     Atomic                   Forces (Hartrees/Bohr)
 Number     Number              X              Y              Z
 -------------------------------------------------------------------
      1        6           0.000000701    0.000001916   -0.000001252
      2        6          -0.001372941    0.000798170    0.002141192
      3        8          -0.000001016    0.000000927   -0.000003914
      4        7           0.001574698   -0.000285876   -0.002834893
      5        6           0.000722894   -0.002586859    0.000138294
      6        6          -0.000925231    0.002064115    0.000545370
      7        8          -0.000001680    0.000000955    0.000000417
      8        7           0.000006715    0.000001069    0.000000810
      9        6          -0.000000667   -0.000000233   -0.000001260
     10        6           0.000001407    0.000000784   -0.000003894
     11        1          -0.000002479    0.000000959   -0.000002875
     12        1          -0.000000160    0.000001460   -0.000000605
     13        1          -0.000002167    0.000001942   -0.000001302
     14        1          -0.000000905    0.000003785   -0.000003847
     15        1          -0.000001741    0.000000826    0.000004081
     16        1          -0.000001746   -0.000005784   -0.000000965
     17        1           0.000000583   -0.000004257   -0.000001792
     18        1          -0.000000539   -0.000003184   -0.000003671
     19        1          -0.000000557   -0.000000662   -0.000000834
     20        1           0.000000618    0.000001836   -0.000000845
     21        1          -0.000000744   -0.000000984   -0.000003251
     22        6           0.000000971    0.000001872    0.000007978
     23        1           0.000000094    0.000002350   -0.000001006
     24        1          -0.000002282    0.000001534    0.000000251
     25        6          -0.000002402    0.000000610    0.000000339
     26        1           0.000000925    0.000001040    0.000002891
     27        1           0.000001935   -0.000002161    0.000001773
     28        8           0.000000052    0.000002970    0.000003865
     29        6           0.000003007    0.000001178    0.000006942
     30        1           0.000000384    0.000000540    0.000005115
     31        1           0.000000828   -0.000001059    0.000003092
     32        1           0.000001443    0.000000221    0.000003795
 -------------------------------------------------------------------
 Cartesian Forces:  Max     0.002834893 RMS     0.000562295

 GradGradGradGradGradGradGradGradGradGradGradGradGradGradGradGradGradGrad
 Berny optimization.
 Internal  Forces:  Max     0.002346824 RMS     0.000317357
 Search for a local minimum.
 Step number   1 out of a maximum of  155 on scan point     1 out of    37
 All quantities printed in internal units (Hartrees-Bohrs-Radians)
 Mixed Optimization -- En-DIIS/RFO-DIIS
 Second derivative matrix not updated -- first step.
 ITU=  0
     Eigenvalues ---    0.00341   0.00477   0.00697   0.00859   0.00945
     Eigenvalues ---    0.00980   0.01070   0.01191   0.01267   0.01526
     Eigenvalues ---    0.01531   0.01924   0.02040   0.02843   0.04086
     Eigenvalues ---    0.05326   0.05420   0.05813   0.06388   0.06930
     Eigenvalues ---    0.07277   0.07461   0.07464   0.07483   0.07652
     Eigenvalues ---    0.09545   0.10036   0.10041   0.10507   0.10907
     Eigenvalues ---    0.11137   0.12933   0.13615   0.16000   0.16000
     Eigenvalues ---    0.16000   0.16000   0.16000   0.16000   0.16000
     Eigenvalues ---    0.16000   0.16000   0.16000   0.16000   0.16000
     Eigenvalues ---    0.21910   0.21944   0.21990   0.23983   0.24465
     Eigenvalues ---    0.24951   0.24974   0.24984   0.24998   0.25000
     Eigenvalues ---    0.25000   0.25000   0.28703   0.29231   0.30189
     Eigenvalues ---    0.33272   0.33273   0.33523   0.33524   0.33735
     Eigenvalues ---    0.33893   0.33940   0.33971   0.34015   0.34269
     Eigenvalues ---    0.34360   0.34507   0.34540   0.34720   0.34850
     Eigenvalues ---    0.34896   0.35017   0.35086   0.36597   0.37410
     Eigenvalues ---    0.37666   0.37749   0.43609   0.43669   0.48660
     Eigenvalues ---    0.50277   0.91867   0.922531000.000001000.00000
     Eigenvalues --- 1000.000001000.000001000.000001000.000001000.00000
     Eigenvalues --- 1000.000001000.000001000.000001000.000001000.00000
     Eigenvalues --- 1000.000001000.000001000.000001000.000001000.00000
     Eigenvalues --- 1000.000001000.000001000.000001000.000001000.00000
     Eigenvalues --- 1000.000001000.000001000.000001000.000001000.00000
     Eigenvalues --- 1000.000001000.000001000.000001000.000001000.00000
     Eigenvalues --- 1000.000001000.000001000.000001000.000001000.00000
     Eigenvalues --- 1000.000001000.000001000.000001000.000001000.00000
     Eigenvalues --- 1000.000001000.000001000.000001000.000001000.00000
     Eigenvalues --- 1000.000001000.000001000.000001000.000001000.00000
     Eigenvalues --- 1000.000001000.000001000.000001000.000001000.00000
 RFO step:  Lambda= 0.00000000D+00 EMin= 3.41392148D-03
 Linear search not attempted -- first point.
 Iteration  1 RMS(Cart)=  0.00008560 RMS(Int)=  0.00000000
 Iteration  2 RMS(Cart)=  0.00000000 RMS(Int)=  0.00000000
 Iteration  1 RMS(Cart)=  0.00000000 RMS(Int)=  0.00000000
 Variable       Old X    -DE/DX   Delta X   Delta X   Delta X     New X
                                 (Linear)    (Quad)   (Total)
    R1        2.87589   0.00000   0.00000   0.00000   0.00000   2.87589
    R2        2.05845   0.00000   0.00000   0.00000   0.00000   2.05845
    R3        2.06727   0.00000   0.00000   0.00000   0.00000   2.06727
    R4        2.06879   0.00000   0.00000   0.00000   0.00000   2.06879
    R5        2.32084   0.00000   0.00000   0.00000   0.00000   2.32084
    R6        2.61242   0.00000   0.00000  -0.00001  -0.00001   2.61241
    R7        2.74855   0.00000   0.00000   0.00000   0.00000   2.74855
    R8        2.76457   0.00000   0.00000   0.00000   0.00000   2.76458
    R9        2.90628   0.00000   0.00000   0.00000   0.00000   2.90627
   R10        2.06483   0.00001   0.00000   0.00001   0.00001   2.06484
   R11        2.07780  -0.00001   0.00000  -0.00002  -0.00002   2.07779
   R12        2.31912   0.00000   0.00000   0.00000   0.00000   2.31912
   R13        2.59587   0.00000   0.00000   0.00000   0.00000   2.59586
   R14        2.74731   0.00000   0.00000   0.00000   0.00000   2.74732
   R15        2.75232   0.00000   0.00000  -0.00001  -0.00001   2.75231
   R16        2.05535   0.00000   0.00000  -0.00001  -0.00001   2.05534
   R17        2.07512   0.00000   0.00000   0.00000   0.00000   2.07512
   R18        2.07432   0.00000   0.00000   0.00000   0.00000   2.07432
   R19        2.07305   0.00000   0.00000   0.00000   0.00000   2.07306
   R20        2.05647   0.00000   0.00000   0.00000   0.00000   2.05647
   R21        2.07379   0.00000   0.00000   0.00000   0.00000   2.07379
   R22        2.06132   0.00000   0.00000   0.00000   0.00000   2.06132
   R23        2.05918   0.00000   0.00000   0.00000   0.00000   2.05919
   R24        2.89524   0.00000   0.00000   0.00000   0.00000   2.89524
   R25        2.08577   0.00000   0.00000   0.00000   0.00000   2.08577
   R26        2.08575   0.00000   0.00000   0.00000   0.00000   2.08575
   R27        2.66925   0.00000   0.00000   0.00000   0.00000   2.66925
   R28        2.66853   0.00000   0.00000   0.00000   0.00000   2.66853
   R29        2.06429   0.00000   0.00000   0.00000   0.00000   2.06429
   R30        2.08142   0.00000   0.00000   0.00001   0.00001   2.08142
   R31        2.08141   0.00000   0.00000   0.00000   0.00000   2.08141
    A1        1.87024   0.00000   0.00000  -0.00001  -0.00001   1.87022
    A2        1.96617   0.00000   0.00000   0.00001   0.00001   1.96618
    A3        1.93941   0.00000   0.00000   0.00000   0.00000   1.93941
    A4        1.90383   0.00000   0.00000   0.00000   0.00000   1.90384
    A5        1.90358   0.00000   0.00000   0.00000   0.00000   1.90358
    A6        1.87984   0.00000   0.00000   0.00000   0.00000   1.87984
    A7        2.10412   0.00000   0.00000   0.00000   0.00000   2.10411
    A8        2.05034   0.00000   0.00000   0.00000   0.00000   2.05035
    A9        2.12803   0.00000   0.00000   0.00000   0.00000   2.12803
   A10        2.03678  -0.00011   0.00000   0.00002   0.00002   2.03680
   A11        2.14904   0.00035   0.00000  -0.00001  -0.00001   2.14903
   A12        2.06849  -0.00007   0.00000   0.00000   0.00000   2.06849
   A13        1.97352   0.00005   0.00000   0.00000   0.00000   1.97352
   A14        1.84895  -0.00010   0.00000  -0.00001  -0.00001   1.84894
   A15        1.93131   0.00007   0.00000   0.00001   0.00001   1.93132
   A16        1.93469  -0.00108   0.00000   0.00001   0.00001   1.93470
   A17        1.90274   0.00101   0.00000  -0.00001  -0.00001   1.90273
   A18        1.86959   0.00000   0.00000   0.00000   0.00000   1.86960
   A19        2.12285   0.00000   0.00000  -0.00001  -0.00001   2.12284
   A20        2.02999   0.00001   0.00000   0.00002   0.00002   2.03001
   A21        2.13027   0.00000   0.00000  -0.00002  -0.00002   2.13026
   A22        2.19446   0.00001   0.00000   0.00005   0.00005   2.19451
   A23        2.07524   0.00000   0.00000  -0.00002  -0.00002   2.07522
   A24        2.01200  -0.00001   0.00000  -0.00003  -0.00003   2.01196
   A25        1.95146   0.00000   0.00000   0.00001   0.00001   1.95147
   A26        1.93247   0.00000   0.00000  -0.00001  -0.00001   1.93247
   A27        1.92464   0.00000   0.00000   0.00001   0.00001   1.92464
   A28        1.88999   0.00000   0.00000  -0.00001  -0.00001   1.88998
   A29        1.88204   0.00000   0.00000   0.00001   0.00001   1.88205
   A30        1.88099   0.00000   0.00000  -0.00001  -0.00001   1.88098
   A31        1.92511   0.00000   0.00000   0.00000   0.00000   1.92512
   A32        1.89372   0.00000   0.00000  -0.00001  -0.00001   1.89371
   A33        1.93130   0.00000   0.00000   0.00000   0.00000   1.93130
   A34        1.91510   0.00000   0.00000   0.00001   0.00001   1.91511
   A35        1.88999   0.00000   0.00000  -0.00001  -0.00001   1.88999
   A36        1.90862   0.00000   0.00000   0.00001   0.00001   1.90863
   A37        1.91609   0.00000   0.00000   0.00000   0.00000   1.91609
   A38        1.88904   0.00000   0.00000   0.00000   0.00000   1.88904
   A39        1.97467   0.00000   0.00000  -0.00002  -0.00002   1.97465
   A40        1.85807   0.00000   0.00000   0.00002   0.00002   1.85809
   A41        1.90300   0.00000   0.00000  -0.00001  -0.00001   1.90299
   A42        1.91938   0.00000   0.00000   0.00001   0.00001   1.91940
   A43        1.93206   0.00000   0.00000  -0.00002  -0.00002   1.93204
   A44        1.93079   0.00000   0.00000   0.00002   0.00002   1.93081
   A45        1.87119   0.00000   0.00000   0.00001   0.00001   1.87119
   A46        1.86442   0.00000   0.00000   0.00001   0.00001   1.86442
   A47        1.93532   0.00000   0.00000  -0.00001  -0.00001   1.93532
   A48        1.93097   0.00000   0.00000  -0.00001  -0.00001   1.93096
   A49        1.97297   0.00000   0.00000   0.00000   0.00000   1.97297
   A50        1.87257   0.00000   0.00000   0.00001   0.00001   1.87258
   A51        1.95117   0.00000   0.00000   0.00000   0.00000   1.95117
   A52        1.95185   0.00000   0.00000   0.00000   0.00000   1.95185
   A53        1.89974   0.00000   0.00000  -0.00001  -0.00001   1.89973
   A54        1.89970   0.00000   0.00000   0.00000   0.00000   1.89971
   A55        1.88774   0.00000   0.00000  -0.00001  -0.00001   1.88773
    D1       -0.03800   0.00000   0.00000   0.00006   0.00006  -0.03795
    D2       -3.14044   0.00000   0.00000   0.00008   0.00008  -3.14036
    D3       -2.13192   0.00000   0.00000   0.00006   0.00006  -2.13186
    D4        1.04882   0.00000   0.00000   0.00008   0.00008   1.04890
    D5        2.04002   0.00000   0.00000   0.00005   0.00005   2.04008
    D6       -1.06242   0.00000   0.00000   0.00007   0.00007  -1.06234
    D7       -3.11433  -0.00037   0.00000  -0.00002  -0.00002  -3.11435
    D8       -0.23288   0.00037   0.00000   0.00002   0.00002  -0.23286
    D9        0.06699  -0.00037   0.00000   0.00000   0.00000   0.06699
   D10        2.94844   0.00037   0.00000   0.00004   0.00004   2.94848
   D11       -2.29214   0.00235   0.00000   0.00000   0.00000  -2.29214
   D12       -0.16982   0.00097   0.00000   0.00000   0.00000  -0.16982
   D13        1.85082   0.00094   0.00000   0.00001   0.00001   1.85083
   D14        1.09712   0.00158   0.00000  -0.00004  -0.00004   1.09708
   D15       -3.06375   0.00021   0.00000  -0.00004  -0.00004  -3.06378
   D16       -1.04311   0.00018   0.00000  -0.00003  -0.00003  -1.04314
   D17        0.64925  -0.00037   0.00000   0.00000   0.00000   0.64925
   D18        2.67067  -0.00037   0.00000   0.00002   0.00002   2.67069
   D19       -1.48089  -0.00037   0.00000   0.00003   0.00003  -1.48086
   D20       -2.75694   0.00037   0.00000   0.00005   0.00005  -2.75690
   D21       -0.73552   0.00037   0.00000   0.00007   0.00007  -0.73545
   D22        1.39610   0.00037   0.00000   0.00008   0.00008   1.39618
   D23        0.02129  -0.00057   0.00000   0.00002   0.00002   0.02131
   D24       -3.10725  -0.00057   0.00000   0.00000   0.00000  -3.10725
   D25       -2.05201   0.00027   0.00000   0.00002   0.00002  -2.05199
   D26        1.10263   0.00027   0.00000   0.00001   0.00001   1.10264
   D27        2.17734   0.00030   0.00000   0.00002   0.00002   2.17736
   D28       -0.95120   0.00030   0.00000   0.00001   0.00001  -0.95119
   D29       -0.08578   0.00000   0.00000   0.00001   0.00001  -0.08576
   D30        3.11739   0.00000   0.00000   0.00001   0.00001   3.11740
   D31        3.06893   0.00000   0.00000   0.00000   0.00000   3.06893
   D32       -0.01109   0.00000   0.00000  -0.00001  -0.00001  -0.01110
   D33       -0.01151   0.00000   0.00000   0.00002   0.00002  -0.01149
   D34        2.09769   0.00000   0.00000   0.00002   0.00002   2.09771
   D35       -2.10529   0.00000   0.00000   0.00000   0.00000  -2.10529
   D36        3.07047   0.00000   0.00000   0.00003   0.00003   3.07050
   D37       -1.10351   0.00000   0.00000   0.00002   0.00002  -1.10349
   D38        0.97669   0.00000   0.00000   0.00001   0.00001   0.97670
   D39       -2.16742   0.00000   0.00000   0.00001   0.00001  -2.16741
   D40       -0.06921   0.00000   0.00000   0.00002   0.00002  -0.06919
   D41        2.02480   0.00000   0.00000   0.00002   0.00002   2.02482
   D42        1.02944   0.00000   0.00000   0.00000   0.00000   1.02945
   D43        3.12766   0.00000   0.00000   0.00001   0.00001   3.12767
   D44       -1.06153   0.00000   0.00000   0.00001   0.00001  -1.06151
   D45        1.04082   0.00000   0.00000  -0.00001  -0.00001   1.04081
   D46       -1.02244   0.00000   0.00000  -0.00002  -0.00002  -1.02246
   D47       -3.12938   0.00000   0.00000  -0.00002  -0.00002  -3.12940
   D48       -1.09663   0.00000   0.00000   0.00001   0.00001  -1.09662
   D49        3.12330   0.00000   0.00000   0.00000   0.00000   3.12330
   D50        1.01636   0.00000   0.00000   0.00000   0.00000   1.01636
   D51       -3.12780   0.00000   0.00000  -0.00001  -0.00001  -3.12781
   D52        1.09213   0.00000   0.00000  -0.00002  -0.00002   1.09211
   D53       -1.01480   0.00000   0.00000  -0.00003  -0.00003  -1.01483
   D54        3.13054   0.00000   0.00000   0.00002   0.00002   3.13056
   D55       -1.04172   0.00000   0.00000   0.00000   0.00000  -1.04172
   D56        1.02372   0.00000   0.00000   0.00000   0.00000   1.02371
   D57       -3.13646   0.00000   0.00000   0.00006   0.00006  -3.13641
   D58       -1.05491   0.00000   0.00000   0.00005   0.00005  -1.05486
   D59        1.06482   0.00000   0.00000   0.00005   0.00005   1.06487
         Item               Value     Threshold  Converged?
 Maximum Force            0.000012     0.000450     YES
 RMS     Force            0.000002     0.000300     YES
 Maximum Displacement     0.000311     0.001800     YES
 RMS     Displacement     0.000086     0.001200     YES
 Predicted change in Energy=-1.405712D-09
 Optimization completed.
    -- Stationary point found.
                           ----------------------------
                           !   Optimized Parameters   !
                           ! (Angstroms and Degrees)  !
 --------------------------                            --------------------------
 ! Name  Definition              Value          Derivative Info.                !
 --------------------------------------------------------------------------------
 ! R1    R(1,2)                  1.5219         -DE/DX =    0.0                 !
 ! R2    R(1,11)                 1.0893         -DE/DX =    0.0                 !
 ! R3    R(1,12)                 1.094          -DE/DX =    0.0                 !
 ! R4    R(1,13)                 1.0948         -DE/DX =    0.0                 !
 ! R5    R(2,3)                  1.2281         -DE/DX =    0.0                 !
 ! R6    R(2,4)                  1.3824         -DE/DX =    0.0                 !
 ! R7    R(4,5)                  1.4545         -DE/DX =    0.0                 !
 ! R8    R(4,22)                 1.4629         -DE/DX =    0.0                 !
 ! R9    R(5,6)                  1.5379         -DE/DX =    0.0                 !
 ! R10   R(5,14)                 1.0927         -DE/DX =    0.0                 !
 ! R11   R(5,15)                 1.0995         -DE/DX =    0.0                 !
 ! R12   R(6,7)                  1.2272         -DE/DX =    0.0                 !
 ! R13   R(6,8)                  1.3737         -DE/DX =    0.0                 !
 ! R14   R(8,9)                  1.4538         -DE/DX =    0.0                 !
 ! R15   R(8,10)                 1.4565         -DE/DX =    0.0                 !
 ! R16   R(9,16)                 1.0876         -DE/DX =    0.0                 !
 ! R17   R(9,17)                 1.0981         -DE/DX =    0.0                 !
 ! R18   R(9,18)                 1.0977         -DE/DX =    0.0                 !
 ! R19   R(10,19)                1.097          -DE/DX =    0.0                 !
 ! R20   R(10,20)                1.0882         -DE/DX =    0.0                 !
 ! R21   R(10,21)                1.0974         -DE/DX =    0.0                 !
 ! R22   R(22,23)                1.0908         -DE/DX =    0.0                 !
 ! R23   R(22,24)                1.0897         -DE/DX =    0.0                 !
 ! R24   R(22,25)                1.5321         -DE/DX =    0.0                 !
 ! R25   R(25,26)                1.1037         -DE/DX =    0.0                 !
 ! R26   R(25,27)                1.1037         -DE/DX =    0.0                 !
 ! R27   R(25,28)                1.4125         -DE/DX =    0.0                 !
 ! R28   R(28,29)                1.4121         -DE/DX =    0.0                 !
 ! R29   R(29,30)                1.0924         -DE/DX =    0.0                 !
 ! R30   R(29,31)                1.1014         -DE/DX =    0.0                 !
 ! R31   R(29,32)                1.1014         -DE/DX =    0.0                 !
 ! A1    A(2,1,11)             107.1566         -DE/DX =    0.0                 !
 ! A2    A(2,1,12)             112.6533         -DE/DX =    0.0                 !
 ! A3    A(2,1,13)             111.1202         -DE/DX =    0.0                 !
 ! A4    A(11,1,12)            109.0817         -DE/DX =    0.0                 !
 ! A5    A(11,1,13)            109.067          -DE/DX =    0.0                 !
 ! A6    A(12,1,13)            107.7068         -DE/DX =    0.0                 !
 ! A7    A(1,2,3)              120.5571         -DE/DX =    0.0                 !
 ! A8    A(1,2,4)              117.476          -DE/DX =    0.0                 !
 ! A9    A(3,2,4)              121.9273         -DE/DX =    0.0                 !
 ! A10   A(2,4,5)              116.6988         -DE/DX =   -0.0001              !
 ! A11   A(2,4,22)             123.1311         -DE/DX =    0.0004              !
 ! A12   A(5,4,22)             118.5155         -DE/DX =   -0.0001              !
 ! A13   A(4,5,6)              113.0745         -DE/DX =    0.0001              !
 ! A14   A(4,5,14)             105.9371         -DE/DX =   -0.0001              !
 ! A15   A(4,5,15)             110.6557         -DE/DX =    0.0001              !
 ! A16   A(6,5,14)             110.8498         -DE/DX =   -0.0011              !
 ! A17   A(6,5,15)             109.019          -DE/DX =    0.001               !
[...]
   D24       -2.06005  -0.00245   0.00000   0.00000   0.00000  -2.06005
   D25       -0.98414   0.00022   0.00022  -0.01747  -0.01728  -1.00142
   D26        2.20237  -0.00083   0.00014  -0.00074  -0.00060   2.20177
   D27       -3.05095   0.00022   0.00007  -0.02378  -0.02369  -3.07465
   D28        0.13555  -0.00082  -0.00001  -0.00704  -0.00701   0.12854
   D29       -0.13902   0.00049   0.00023  -0.09358  -0.09288  -0.23190
   D30       -3.06701   0.00037  -0.00040   0.01153   0.01071  -3.05631
   D31        3.04906  -0.00061   0.00015  -0.07643  -0.07586   2.97320
   D32        0.12107  -0.00072  -0.00048   0.02868   0.02773   0.14880
   D33        0.40862  -0.00012  -0.00164   0.29347   0.29159   0.70021
   D34        2.48475   0.00000  -0.00150   0.27831   0.27660   2.76135
   D35       -1.72126   0.00008  -0.00157   0.27744   0.27556  -1.44569
   D36       -2.94032  -0.00006  -0.00101   0.19073   0.18998  -2.75034
   D37       -0.86419   0.00006  -0.00087   0.17557   0.17499  -0.68920
   D38        1.21299   0.00015  -0.00094   0.17470   0.17395   1.38694
   D39       -2.32539   0.00007   0.00052  -0.04707  -0.04701  -2.37240
   D40       -0.22660   0.00001   0.00043  -0.05217  -0.05220  -0.27880
   D41        1.86821   0.00004   0.00048  -0.05167  -0.05165   1.81656
   D42        1.00309   0.00010  -0.00004   0.04854   0.04896   1.05205
   D43        3.10187   0.00004  -0.00013   0.04345   0.04378  -3.13753
   D44       -1.08650   0.00007  -0.00008   0.04394   0.04432  -1.04218
   D45        1.06204   0.00005   0.00011  -0.00485  -0.00474   1.05729
   D46       -0.99473   0.00002   0.00009  -0.00562  -0.00553  -1.00027
   D47       -3.10548   0.00000   0.00011  -0.00712  -0.00701  -3.11248
   D48       -1.08168  -0.00002   0.00015  -0.00481  -0.00467  -1.08634
   D49       -3.13845  -0.00005   0.00013  -0.00558  -0.00546   3.13928
   D50        1.03399  -0.00008   0.00015  -0.00708  -0.00693   1.02707
   D51       -3.09855   0.00003   0.00021  -0.00183  -0.00163  -3.10018
   D52        1.12786   0.00000   0.00019  -0.00260  -0.00242   1.12544
   D53       -0.98288  -0.00002   0.00021  -0.00410  -0.00389  -0.98677
   D54       -3.12351   0.00000  -0.00023  -0.00029  -0.00051  -3.12402
   D55       -1.01618  -0.00010  -0.00023  -0.00354  -0.00378  -1.01995
   D56        1.05232   0.00003  -0.00029  -0.00358  -0.00388   1.04844
   D57        3.12477   0.00010   0.00034   0.00834   0.00868   3.13345
   D58       -1.07648   0.00007   0.00034   0.00785   0.00819  -1.06829
   D59        1.04278   0.00011   0.00033   0.00843   0.00876   1.05154
         Item               Value     Threshold  Converged?
 Maximum Force            0.000697     0.000450     NO 
 RMS     Force            0.000175     0.000300     YES
 Maximum Displacement     0.527301     0.001800     NO 
 RMS     Displacement     0.072305     0.001200     NO 
 Predicted change in Energy=-4.894050D-05
 GradGradGradGradGradGradGradGradGradGradGradGradGradGradGradGradGradGrad

                          Input orientation:                          
 ---------------------------------------------------------------------
 Center     Atomic      Atomic             Coordinates (Angstroms)
 Number     Number       Type             X           Y           Z
 ---------------------------------------------------------------------
      1          6           0        2.370931    2.522937    0.811779
      2          6           0        1.013030    2.432216    0.129411
      3          8           0        0.490844    3.426952   -0.361485
      4          7           0        0.388383    1.199073    0.111986
      5          6           0       -0.934734    1.131993   -0.506744
      6          6           0       -1.931189    0.397079    0.404028
      7          8           0       -2.135044    0.831964    1.530962
      8          7           0       -2.514061   -0.773153   -0.043096
      9          6           0       -2.491087   -1.260339   -1.416890
     10          6           0       -3.535807   -1.384714    0.801512
     11          1           0        2.737696    3.537777    0.663116
     12          1           0        3.098550    1.815157    0.404368
     13          1           0        2.283198    2.332276    1.886633
     14          1           0       -1.276203    2.163319   -0.607175
     15          1           0       -0.871500    0.707000   -1.512405
     16          1           0       -1.524556   -1.100093   -1.892341
     17          1           0       -2.669942   -2.338844   -1.396567
     18          1           0       -3.272429   -0.800078   -2.039213
     19          1           0       -3.371282   -2.465902    0.858486
     20          1           0       -3.466596   -0.948575    1.795983
     21          1           0       -4.541008   -1.206352    0.397395
     22          6           0        1.021366   -0.034798    0.558207
     23          1           0        1.720448    0.174952    1.369021
     24          1           0        0.260228   -0.699883    0.975896
     25          6           0        1.765971   -0.772431   -0.559388
     26          1           0        2.568505   -0.134831   -0.967987
     27          1           0        1.083668   -1.001878   -1.396111
     28          8           0        2.293728   -1.958381   -0.003595
     29          6           0        3.029336   -2.725156   -0.934791
     30          1           0        3.398013   -3.608198   -0.408139
     31          1           0        2.403788   -3.050365   -1.780897
     32          1           0        3.888108   -2.165665   -1.336987
 ---------------------------------------------------------------------
                    Distance matrix (angstroms):
                    1          2          3          4          5
     1  C    0.000000
     2  C    1.522416   0.000000
     3  O    2.393433   1.226033   0.000000
     4  N    2.484516   1.382436   2.279938   0.000000
     5  C    3.821079   2.426739   2.705589   1.462179   0.000000
     6  C    4.815991   3.589655   3.953781   2.471619   1.537051
     7  O    4.866254   3.799411   4.148567   2.918210   2.383906
     8  N    5.954676   4.769122   5.174138   3.512536   2.517702
     9  C    6.551287   5.320231   5.654776   4.083812   2.995639
    10  C    7.082330   5.976002   6.381114   4.748755   3.848497
    11  H    1.089273   2.116973   2.471929   3.360439   4.543469
    12  H    1.093786   2.192204   3.159834   2.794647   4.190969
    13  H    1.095153   2.170517   3.076506   2.832639   4.186170
    14  H    3.929929   2.419805   2.186227   2.053731   1.091018
    15  H    4.383242   3.037003   3.252497   2.113785   1.093605
    16  H    5.967699   4.796253   5.186473   3.600393   2.692578
    17  H    7.343303   6.217388   6.656303   4.913852   3.981135
    18  H    7.142695   5.789285   5.902946   4.693166   3.397966
    19  H    7.606820   6.614024   7.150530   5.303243   4.554719
    20  H    6.862708   5.854422   6.281817   4.723251   4.005201
    21  H    7.864745   6.645174   6.882074   5.492397   4.392099
    22  C    2.903039   2.504016   3.620912   1.456784   2.514328
    23  H    2.499336   2.670639   3.883566   2.098418   3.388866
    24  H    3.855979   3.330660   4.344254   2.090167   2.642333
    25  C    3.620156   3.363202   4.393169   2.497062   3.305058
    26  H    3.204736   3.195859   4.167832   2.774630   3.753701
    27  H    4.353866   3.758352   4.586549   2.757166   3.068929
    28  O    4.555547   4.575502   5.690368   3.689609   4.497392
    29  C    5.570142   5.638839   6.679899   4.844579   5.547492
    30  H    6.335134   6.516418   7.612303   5.695459   6.422758
    31  H    6.146930   5.970107   6.901429   5.069772   5.501028
    32  H    5.376059   5.617554   6.615919   5.066464   5.901157
                    6          7          8          9         10
     6  C    0.000000
     7  O    1.225014   0.000000
     8  N    1.381703   2.279849   0.000000
     9  C    2.525127   3.632400   1.457803   0.000000
    10  C    2.430551   2.721745   1.459909   2.455243   0.000000
    11  H    5.632903   5.640760   6.831090   7.395169   7.975394
    12  H    5.225823   5.443014   6.196852   6.634735   7.376421
    13  H    4.868692   4.679562   6.031686   6.827441   6.989587
    14  H    2.138023   2.661155   3.236254   3.721964   4.436073
    15  H    2.211721   3.297612   2.654756   2.550022   4.102196
    16  H    2.771315   3.978008   2.122668   1.088997   3.373868
    17  H    3.357555   4.348628   2.075469   1.093423   2.547869
    18  H    3.033404   4.086973   2.135493   1.099827   2.912196
    19  H    3.236829   3.585586   2.100733   2.721298   1.095117
    20  H    2.470991   2.239103   2.078534   3.372146   1.088108
    21  H    3.063036   3.350876   2.119011   2.738014   1.097977
    22  C    2.987954   3.414741   3.661417   4.211922   4.759127
    23  H    3.783517   3.914423   4.563336   5.249609   5.512063
    24  H    2.516480   2.896892   2.956415   3.689075   3.861254
    25  C    3.995613   4.707608   4.311059   4.369887   5.507794
    26  H    4.734195   5.413207   5.205320   5.202668   6.477342
    27  H    3.779808   4.721317   3.850534   3.584146   5.129879
    28  O    4.854305   5.454807   4.951884   5.037770   5.912763
    29  C    6.012287   6.738239   5.944298   5.731769   6.921895
    30  H    6.715821   7.354582   6.566837   6.419620   7.381395
    31  H    5.954057   6.829487   5.691299   5.224605   6.687452
    32  H    6.592649   7.313637   6.678399   6.443612   7.765151
                   11         12         13         14         15
    11  H    0.000000
    12  H    1.778929   0.000000
    13  H    1.776737   1.768989   0.000000
    14  H    4.428788   4.503655   4.349363   0.000000
    15  H    5.076661   4.545693   4.913970   1.761843   0.000000
    16  H    6.797573   5.928463   6.368736   3.516133   1.958678
    17  H    8.247394   7.333116   7.558595   4.778610   3.539065
    18  H    7.889307   7.307525   7.489252   3.849334   2.883274
    19  H    8.567493   7.771256   7.486838   5.288403   4.683732
    20  H    7.739765   7.257820   6.620599   4.500763   4.518947
    21  H    8.692347   8.215377   7.830039   4.798207   4.557800
    22  C    3.964857   2.785803   2.993322   3.386541   2.901834
    23  H    3.583530   2.349467   2.288811   4.103519   3.912018
    24  H    4.918683   3.835120   3.757105   3.614507   3.074374
    25  C    4.584393   3.065975   3.986195   4.227971   3.170680
    26  H    4.022086   2.442695   3.783764   4.493713   3.583114
    27  H    5.252113   3.903481   4.830307   4.026150   2.599321
    28  O    5.554221   3.879918   4.688583   5.486085   4.404478
    29  C    6.470138   4.734192   5.839073   6.522437   5.227796
    30  H    7.255933   5.492051   6.465139   7.429557   6.170014
    31  H    7.034793   5.378790   6.514456   6.488640   4.991732
    32  H    6.152489   4.416182   5.761852   6.778115   5.562090
                   16         17         18         19         20
    16  H    0.000000
    17  H    1.758466   0.000000
    18  H    1.779505   1.773072   0.000000
    19  H    3.583697   2.365013   3.343860   0.000000
    20  H    4.171116   3.572097   3.842978   1.786132   0.000000
    21  H    3.788556   2.828732   2.776942   1.779699   1.782375
    22  C    3.690767   4.770274   5.076309   5.029492   4.744352
    23  H    4.774126   5.765689   6.123362   5.758513   5.324474
    24  H    3.401825   4.111042   4.645491   4.039861   3.824082
    25  C    3.565347   4.778268   5.251297   5.591922   5.740954
    26  H    4.305730   5.699358   5.975499   6.637090   6.687611
    27  H    2.656826   3.984603   4.407933   5.203187   5.558525
    28  O    4.345494   5.169443   6.038833   5.752661   6.118784
    29  C    4.929063   5.730989   6.681161   6.652140   7.267083
    30  H    5.720589   6.277604   7.418944   6.980869   7.684699
    31  H    4.387239   5.137772   6.111461   6.376471   7.188393
    32  H    5.544439   6.560607   7.323335   7.590059   8.086314
                   21         22         23         24         25
    21  H    0.000000
    22  C    5.686686   0.000000
    23  H    6.485205   1.090931   0.000000
    24  H    4.862411   1.093679   1.747033   0.000000
    25  C    6.393881   1.532174   2.149039   2.151656   0.000000
    26  H    7.318306   2.175526   2.505349   3.070196   1.103425
    27  H    5.907237   2.181395   3.071868   2.528966   1.103761
    28  O    6.887667   2.373752   2.600738   2.584249   1.412059
    29  C    7.835278   3.674100   3.928278   3.926883   2.355876
    30  H    8.333414   4.399029   4.503859   4.496614   3.275364
    31  H    7.508364   4.059081   4.559782   4.209456   2.662307
    32  H    8.659005   4.043583   4.183267   4.545268   2.655038
                   26         27         28         29         30
    26  H    0.000000
    27  H    1.771949   0.000000
    28  O    2.081078   2.078039   0.000000
    29  C    2.631206   2.639721   1.412865   0.000000
    30  H    3.614663   3.622870   2.026079   1.092268   0.000000
    31  H    3.031219   2.467200   2.088862   1.101348   1.784412
    32  H    2.449857   3.036904   2.088767   1.101037   1.784336
                   31         32
    31  H    0.000000
    32  H    1.784084   0.000000
 Stoichiometry    C9H18N2O3
 Framework group  C1[X(C9H18N2O3)]
 Deg. of freedom    90
 Full point group                 C1      NOp   1
 Largest Abelian subgroup         C1      NOp   1
 Largest concise Abelian subgroup C1      NOp   1
                         Standard orientation:                         
 ---------------------------------------------------------------------
 Center     Atomic      Atomic             Coordinates (Angstroms)
 Number     Number       Type             X           Y           Z
 ---------------------------------------------------------------------
      1          6           0       -2.698360    2.156974   -0.541736
      2          6           0       -1.380301    2.117688    0.219136
      3          8           0       -1.036894    3.058441    0.926394
      4          7           0       -0.583124    0.999813    0.057912
      5          6           0        0.700508    0.991244    0.758041
      6          6           0        1.841352    0.588219   -0.189890
      7          8           0        2.039059    1.257769   -1.196506
      8          7           0        2.565056   -0.557897    0.078010
      9          6           0        2.540495   -1.302162    1.331269
     10          6           0        3.709224   -0.850582   -0.780216
     11          1           0       -3.217635    3.064905   -0.237547
     12          1           0       -3.334845    1.292388   -0.332584
     13          1           0       -2.526243    2.193022   -1.622679
     14          1           0        0.880916    2.019464    1.075117
     15          1           0        0.646723    0.373784    1.659053
     16          1           0        1.536892   -1.368621    1.748735
     17          1           0        2.876662   -2.322142    1.125824
     18          1           0        3.211357   -0.871625    2.089030
     19          1           0        3.708586   -1.912019   -1.049718
     20          1           0        3.629956   -0.242214   -1.678873
     21          1           0        4.654266   -0.621419   -0.270380
     22          6           0       -1.003226   -0.196840   -0.658855
     23          1           0       -1.681184    0.071387   -1.470371
     24          1           0       -0.131422   -0.659667   -1.129897
     25          6           0       -1.690065   -1.231160    0.238917
     26          1           0       -2.598233   -0.798811    0.692624
     27          1           0       -1.027171   -1.525823    1.070802
     28          8           0       -2.007417   -2.345795   -0.567797
     29          6           0       -2.671124   -3.370885    0.142745
     30          1           0       -2.877404   -4.175581   -0.566453
     31          1           0       -2.050723   -3.768025    0.961494
     32          1           0       -3.623024   -3.020714    0.571171
 ---------------------------------------------------------------------
 Rotational constants (GHZ):      0.6468970      0.4923614      0.3199194
 Standard basis: 6-31G(d,p) (6D, 7F)
 There are   300 symmetry adapted basis functions of A   symmetry.
 Integral buffers will be    131072 words long.
 Raffenetti 2 integral format.
 Two-electron integral symmetry is turned on.
   300 basis functions,   518 primitive gaussians,   300 cartesian basis functions
    55 alpha electrons       55 beta electrons
       nuclear repulsion energy       968.0102898835 Hartrees.
 NAtoms=   32 NActive=   32 NUniq=   32 SFac= 1.00D+00 NAtFMM=   60 NAOKFM=F Big=F
 One-electron integrals computed using PRISM.
 NBasis=   300 RedAO= T  NBF=   300
 NBsUse=   300 1.00D-06 NBFU=   300
 Initial guess read from the read-write file.
 B after Tr=     0.000000    0.000000    0.000000
         Rot=    1.000000    0.000000    0.000000    0.000000 Ang=   0.00 deg.
 Initial guess orbital symmetries:
       Occupied  (A) (A) (A) (A) (A) (A) (A) (A) (A) (A) (A) (A)
                 (A) (A) (A) (A) (A) (A) (A) (A) (A) (A) (A) (A)
                 (A) (A) (A) (A) (A) (A) (A) (A) (A) (A) (A) (A)
                 (A) (A) (A) (A) (A) (A) (A) (A) (A) (A) (A) (A)
                 (A) (A) (A) (A) (A) (A) (A)
       Virtual   (A) (A) (A) (A) (A) (A) (A) (A) (A) (A) (A) (A)
                 (A) (A) (A) (A) (A) (A) (A) (A) (A) (A) (A) (A)
                 (A) (A) (A) (A) (A) (A) (A) (A) (A) (A) (A) (A)
                 (A) (A) (A) (A) (A) (A) (A) (A) (A) (A) (A) (A)
                 (A) (A) (A) (A) (A) (A) (A) (A) (A) (A) (A) (A)
                 (A) (A) (A) (A) (A) (A) (A) (A) (A) (A) (A) (A)
                 (A) (A) (A) (A) (A) (A) (A) (A) (A) (A) (A) (A)
                 (A) (A) (A) (A) (A) (A) (A) (A) (A) (A) (A) (A)
                 (A) (A) (A) (A) (A) (A) (A) (A) (A) (A) (A) (A)
                 (A) (A) (A) (A) (A) (A) (A) (A) (A) (A) (A) (A)
                 (A) (A) (A) (A) (A) (A) (A) (A) (A) (A) (A) (A)
                 (A) (A) (A) (A) (A) (A) (A) (A) (A) (A) (A) (A)
                 (A) (A) (A) (A) (A) (A) (A) (A) (A) (A) (A) (A)
                 (A) (A) (A) (A) (A) (A) (A) (A) (A) (A) (A) (A)
                 (A) (A) (A) (A) (A) (A) (A) (A) (A) (A) (A) (A)
                 (A) (A) (A) (A) (A) (A) (A) (A) (A) (A) (A) (A)
                 (A) (A) (A) (A) (A) (A) (A) (A) (A) (A) (A) (A)
                 (A) (A) (A) (A) (A) (A) (A) (A) (A) (A) (A) (A)
                 (A) (A) (A) (A) (A) (A) (A) (A) (A) (A) (A) (A)
                 (A) (A) (A) (A) (A) (A) (A) (A) (A) (A) (A) (A)
                 (A) (A) (A) (A) (A)
 Harris functional with IExCor=  402 diagonalized for initial guess.
 ExpMin= 1.61D-01 ExpMax= 5.48D+03 ExpMxC= 8.25D+02 IAcc=1 IRadAn=         1 AccDes= 0.00D+00
 HarFok:  IExCor=  402 AccDes= 0.00D+00 IRadAn=         1 IDoV= 1
 ScaDFX=  1.000000  1.000000  1.000000  1.000000
 FoFCou: FMM=F IPFlag=           0 FMFlag=      100000 FMFlg1=           0
         NFxFlg=           0 DoJE=T BraDBF=F KetDBF=T FulRan=T
         Omega=  0.000000  0.000000  1.000000  0.000000  0.000000 ICntrl=     500 IOpCl=  0
         NMat0=    1 NMatS0=    1 NMatT0=    0 NMatD0=    1 NMtDS0=    0 NMtDT0=    0
         I1Cent=           4 NGrid=           0.
 Petite list used in FoFCou.
 Requested convergence on RMS density matrix=1.00D-08 within 128 cycles.
 Requested convergence on MAX density matrix=1.00D-06.
 Requested convergence on             energy=1.00D-06.
 No special actions if energy rises.
 Keep R1 ints in memory in canonical form, NReq=1033484185.
 Integral accuracy reduced to 1.0D-05 until final iterations.
 Initial convergence to 1.0D-05 achieved.  Increase integral accuracy.
 SCF Done:  E(RB3LYP) =  -688.989435412     A.U. after   11 cycles
             Convg  =    0.8305D-08             -V/T =  2.0093
