 Entering Gaussian System, Link 0=/data/opt/apps/g09-C01/g09
 Initial command:
 /data/opt/apps/g09-C01/l1.exe /tmp/g09-tuu61186-3073237c21e64fea8x/Gau-3073377.inp -scrdir=/tmp/g09-tuu61186-3073237c21e64fea8x/
 Entering Link 1 = /data/opt/apps/g09-C01/l1.exe PID=   3073387.
  
 Copyright (c) 1988,1990,1992,1993,1995,1998,2003,2009,2011,
            Gaussian, Inc.  All Rights Reserved.
  
 This is part of the Gaussian(R) 09 program.  It is based on
 the Gaussian(R) 03 system (copyright 2003, Gaussian, Inc.),
 the Gaussian(R) 98 system (copyright 1998, Gaussian, Inc.),
 the Gaussian(R) 94 system (copyright 1995, Gaussian, Inc.),
 the Gaussian 92(TM) system (copyright 1992, Gaussian, Inc.),
 the Gaussian 90(TM) system (copyright 1990, Gaussian, Inc.),
 the Gaussian 88(TM) system (copyright 1988, Gaussian, Inc.),
 the Gaussian 86(TM) system (copyright 1986, Carnegie Mellon
 University), and the Gaussian 82(TM) system (copyright 1983,
 Carnegie Mellon University). Gaussian is a federally registered
 trademark of Gaussian, Inc.
  
 This software contains proprietary and confidential information,
 including trade secrets, belonging to Gaussian, Inc.
  
 This software is provided under written license and may be
 used, copied, transmitted, or stored only in accord with that
 written license.
  
 The following legend is applicable only to US Government
 contracts under FAR:
  
                    RESTRICTED RIGHTS LEGEND
  
 Use, reproduction and disclosure by the US Government is
 subject to restrictions as set forth in subparagraphs (a)
 and (c) of the Commercial Computer Software - Restricted
 Rights clause in FAR 52.227-19.
  
 Gaussian, Inc.
 340 Quinnipiac St., Bldg. 40, Wallingford CT 06492
  
  
 ---------------------------------------------------------------
 Warning -- This program may not be used in any manner that
 competes with the business of Gaussian, Inc. or will provide
 assistance to any competitor of Gaussian, Inc.  The licensee
 of this program is prohibited from giving any competitor of
 Gaussian, Inc. access to this program.  By using this program,
 the user acknowledges that Gaussian, Inc. is engaged in the
 business of creating and licensing software in the field of
 computational chemistry and represents and warrants to the
 licensee that it is not a competitor of Gaussian, Inc. and that
 it will not use this program in any manner prohibited above.
 ---------------------------------------------------------------
  

 Cite this work as:
 Gaussian 09, Revision C.01,
 M. J. Frisch, G. W. Trucks, H. B. Schlegel, G. E. Scuseria, 
 M. A. Robb, J. R. Cheeseman, G. Scalmani, V. Barone, B. Mennucci, 
 G. A. Petersson, H. Nakatsuji, M. Caricato, X. Li, H. P. Hratchian, 
 A. F. Izmaylov, J. Bloino, G. Zheng, J. L. Sonnenberg, M. Hada, 
 M. Ehara, K. Toyota, R. Fukuda, J. Hasegawa, M. Ishida, T. Nakajima, 
 Y. Honda, O. Kitao, H. Nakai, T. Vreven, J. A. Montgomery, Jr., 
 J. E. Peralta, F. Ogliaro, M. Bearpark, J. J. Heyd, E. Brothers, 
 K. N. Kudin, V. N. Staroverov, T. Keith, R. Kobayashi, J. Normand, 
 K. Raghavachari, A. Rendell, J. C. Burant, S. S. Iyengar, J. Tomasi, 
 M. Cossi, N. Rega, J. M. Millam, M. Klene, J. E. Knox, J. B. Cross, 
 V. Bakken, C. Adamo, J. Jaramillo, R. Gomperts, R. E. Stratmann, 
 O. Yazyev, A. J. Austin, R. Cammi, C. Pomelli, J. W. Ochterski, 
 R. L. Martin, K. Morokuma, V. G. Zakrzewski, G. A. Voth, 
 P. Salvador, J. J. Dannenberg, S. Dapprich, A. D. Daniels, 
 O. Farkas, J. B. Foresman, J. V. Ortiz, J. Cioslowski, 
 and D. J. Fox, Gaussian, Inc., Wallingford CT, 2010.
 
 ******************************************
 Gaussian 09:  EM64L-G09RevC.01 23-Sep-2011
                24-Apr-2026 
 ******************************************
 %nprocshared=8
 Will use up to    8 processors via shared memory.
 %mem=14GB
 -----------------------------------
 # opt=modredundant b3lyp/6-31g(d,p)
 -----------------------------------
 1/14=-1,18=120,19=15,26=3,38=1/1,3;
 2/9=110,12=2,17=6,18=5,40=1/2;
 3/5=1,6=6,7=101,11=2,16=1,25=1,30=1,71=1,74=-5/1,2,3;
 4//1;
 5/5=2,38=5/2;
 6/7=2,8=2,9=2,10=2,28=1/1;
 7//1,2,3,16;
 1/14=-1,18=20,19=15/3(2);
 2/9=110/2;
 99//99;
 2/9=110/2;
 3/5=1,6=6,7=101,11=2,16=1,25=1,30=1,71=1,74=-5/1,2,3;
 4/5=5,16=3/1;
 5/5=2,38=5/2;
 7//1,2,3,16;
 1/14=-1,18=20,19=15/3(-5);
 2/9=110/2;
 6/7=2,8=2,9=2,10=2,19=2,28=1/1;
 99/9=1/99;
 ---------------
 QM dihedral opt
 ---------------
 Charge =  0 Multiplicity = 1
 Symbolic Z-Matrix:
 C                     2.53028   2.4188    0.49815 
 C                     1.13284   2.16307  -0.0481 
 O                     0.55951   3.01687  -0.71928 
 N                     0.51726   0.9687    0.28969 
 C                    -0.77887   0.74696  -0.34631 
 C                    -1.74448  -0.12425   0.46656 
 O                    -1.49874  -0.47916   1.61601 
 N                    -2.90944  -0.48605  -0.16829 
 C                    -3.36873   0.01161  -1.45564 
 C                    -3.8738   -1.30394   0.55537 
 H                     2.81119   3.4279    0.19878 
 H                     3.26744   1.71352   0.10257 
 H                     2.55312   2.34697   1.58993 
 H                    -1.21117   1.73689  -0.51128 
 H                    -0.64509   0.30536  -1.34459 
 H                    -2.62197   0.63662  -1.9395 
 H                    -3.60228  -0.82487  -2.12638 
 H                    -4.28208   0.60909  -1.33351 
 H                    -4.16696  -2.16664  -0.0545 
 H                    -3.41497  -1.64448   1.48133 
 H                    -4.77688  -0.72622   0.79202 
 C                     1.29175  -0.1873    0.75456 
 H                     2.08332   0.15517   1.42174 
 H                     0.63381  -0.82537   1.34145 
 C                     1.92091  -0.9939   -0.38623 
 H                     2.57149  -0.35295  -1.00697 
 H                     1.13917  -1.39818  -1.05219 
 O                     2.66253  -2.04134   0.20368 
 C                     3.27232  -2.89073  -0.74511 
 H                     3.81616  -3.65897  -0.19069 
 H                     2.52883  -3.37984  -1.39402 
 H                     3.98241  -2.34547  -1.38679 
 
 The following ModRedundant input section has been read:
 D       2       4       5       6 F                                           
 D       4       5       6       8 S  36 10.000                                

 GradGradGradGradGradGradGradGradGradGradGradGradGradGradGradGradGradGrad
 Berny optimization.
 Initialization pass.
                           ----------------------------
                           !    Initial Parameters    !
                           ! (Angstroms and Degrees)  !
 --------------------------                            --------------------------
 ! Name  Definition              Value          Derivative Info.                !
 --------------------------------------------------------------------------------
 ! R1    R(1,2)                  1.522          estimate D2E/DX2                !
 ! R2    R(1,11)                 1.0894         estimate D2E/DX2                !
 ! R3    R(1,12)                 1.0942         estimate D2E/DX2                !
 ! R4    R(1,13)                 1.0944         estimate D2E/DX2                !
 ! R5    R(2,3)                  1.2281         estimate D2E/DX2                !
 ! R6    R(2,4)                  1.3855         estimate D2E/DX2                !
 ! R7    R(4,5)                  1.4607         estimate D2E/DX2                !
 ! R8    R(4,22)                 1.4671         estimate D2E/DX2                !
 ! R9    R(5,6)                  1.5337         estimate D2E/DX2                !
 ! R10   R(5,14)                 1.0927         estimate D2E/DX2                !
 ! R11   R(5,15)                 1.0998         estimate D2E/DX2                !
 ! R12   R(6,7)                  1.2278         estimate D2E/DX2                !
 ! R13   R(6,8)                  1.3752         estimate D2E/DX2                !
 ! R14   R(8,9)                  1.4546         estimate D2E/DX2                !
 ! R15   R(8,10)                 1.4569         estimate D2E/DX2                !
 ! R16   R(9,16)                 1.0874         estimate D2E/DX2                !
 ! R17   R(9,17)                 1.0973         estimate D2E/DX2                !
 ! R18   R(9,18)                 1.0982         estimate D2E/DX2                !
 ! R19   R(10,19)                1.0964         estimate D2E/DX2                !
 ! R20   R(10,20)                1.0881         estimate D2E/DX2                !
 ! R21   R(10,21)                1.0979         estimate D2E/DX2                !
 ! R22   R(22,23)                1.0904         estimate D2E/DX2                !
 ! R23   R(22,24)                1.0883         estimate D2E/DX2                !
 ! R24   R(22,25)                1.5323         estimate D2E/DX2                !
 ! R25   R(25,26)                1.1043         estimate D2E/DX2                !
 ! R26   R(25,27)                1.1037         estimate D2E/DX2                !
 ! R27   R(25,28)                1.4125         estimate D2E/DX2                !
 ! R28   R(28,29)                1.4119         estimate D2E/DX2                !
 ! R29   R(29,30)                1.0924         estimate D2E/DX2                !
 ! R30   R(29,31)                1.1014         estimate D2E/DX2                !
 ! R31   R(29,32)                1.1015         estimate D2E/DX2                !
 ! A1    A(2,1,11)             107.0821         estimate D2E/DX2                !
 ! A2    A(2,1,12)             112.364          estimate D2E/DX2                !
 ! A3    A(2,1,13)             111.4801         estimate D2E/DX2                !
 ! A4    A(11,1,12)            108.9033         estimate D2E/DX2                !
 ! A5    A(11,1,13)            109.2425         estimate D2E/DX2                !
 ! A6    A(12,1,13)            107.7164         estimate D2E/DX2                !
 ! A7    A(1,2,3)              120.5291         estimate D2E/DX2                !
 ! A8    A(1,2,4)              117.7275         estimate D2E/DX2                !
 ! A9    A(3,2,4)              121.6786         estimate D2E/DX2                !
 ! A10   A(2,4,5)              114.7689         estimate D2E/DX2                !
 ! A11   A(2,4,22)             121.4649         estimate D2E/DX2                !
 ! A12   A(5,4,22)             119.1304         estimate D2E/DX2                !
 ! A13   A(4,5,6)              114.4649         estimate D2E/DX2                !
 ! A14   A(4,5,14)             106.2159         estimate D2E/DX2                !
 ! A15   A(4,5,15)             110.38           estimate D2E/DX2                !
 ! A16   A(6,5,14)             110.2156         estimate D2E/DX2                !
 ! A17   A(6,5,15)             109.2439         estimate D2E/DX2                !
 ! A18   A(14,5,15)            105.9533         estimate D2E/DX2                !
 ! A19   A(5,6,7)              122.3006         estimate D2E/DX2                !
 ! A20   A(5,6,8)              115.9849         estimate D2E/DX2                !
 ! A21   A(7,6,8)              121.7144         estimate D2E/DX2                !
 ! A22   A(6,8,9)              125.8769         estimate D2E/DX2                !
 ! A23   A(6,8,10)             118.6283         estimate D2E/DX2                !
 ! A24   A(9,8,10)             115.0026         estimate D2E/DX2                !
 ! A25   A(8,9,16)             111.939          estimate D2E/DX2                !
 ! A26   A(8,9,17)             110.3263         estimate D2E/DX2                !
 ! A27   A(8,9,18)             110.5059         estimate D2E/DX2                !
 ! A28   A(16,9,17)            108.1989         estimate D2E/DX2                !
 ! A29   A(16,9,18)            107.9339         estimate D2E/DX2                !
 ! A30   A(17,9,18)            107.7996         estimate D2E/DX2                !
 ! A31   A(8,10,19)            110.0237         estimate D2E/DX2                !
 ! A32   A(8,10,20)            108.6194         estimate D2E/DX2                !
 ! A33   A(8,10,21)            110.8629         estimate D2E/DX2                !
 ! A34   A(19,10,20)           109.868          estimate D2E/DX2                !
 ! A35   A(19,10,21)           108.3007         estimate D2E/DX2                !
 ! A36   A(20,10,21)           109.1555         estimate D2E/DX2                !
 ! A37   A(4,22,23)            109.2471         estimate D2E/DX2                !
 ! A38   A(4,22,24)            108.2824         estimate D2E/DX2                !
 ! A39   A(4,22,25)            113.3061         estimate D2E/DX2                !
 ! A40   A(23,22,24)           107.0404         estimate D2E/DX2                !
 ! A41   A(23,22,25)           108.8316         estimate D2E/DX2                !
 ! A42   A(24,22,25)           109.9432         estimate D2E/DX2                !
 ! A43   A(22,25,26)           110.7865         estimate D2E/DX2                !
 ! A44   A(22,25,27)           110.5629         estimate D2E/DX2                !
 ! A45   A(22,25,28)           107.1586         estimate D2E/DX2                !
 ! A46   A(26,25,27)           106.901          estimate D2E/DX2                !
 ! A47   A(26,25,28)           110.8463         estimate D2E/DX2                !
 ! A48   A(27,25,28)           110.6257         estimate D2E/DX2                !
 ! A49   A(25,28,29)           113.0931         estimate D2E/DX2                !
 ! A50   A(28,29,30)           107.2791         estimate D2E/DX2                !
 ! A51   A(28,29,31)           111.8093         estimate D2E/DX2                !
 ! A52   A(28,29,32)           111.8442         estimate D2E/DX2                !
 ! A53   A(30,29,31)           108.8311         estimate D2E/DX2                !
 ! A54   A(30,29,32)           108.8361         estimate D2E/DX2                !
 ! A55   A(31,29,32)           108.1665         estimate D2E/DX2                !
 ! D1    D(11,1,2,3)             1.7126         estimate D2E/DX2                !
 ! D2    D(11,1,2,4)          -175.4093         estimate D2E/DX2                !
 ! D3    D(12,1,2,3)          -117.8202         estimate D2E/DX2                !
 ! D4    D(12,1,2,4)            65.0579         estimate D2E/DX2                !
 ! D5    D(13,1,2,3)           121.1476         estimate D2E/DX2                !
 ! D6    D(13,1,2,4)           -55.9743         estimate D2E/DX2                !
 ! D7    D(1,2,4,5)           -175.7604         estimate D2E/DX2                !
 ! D8    D(1,2,4,22)           -20.1303         estimate D2E/DX2                !
 ! D9    D(3,2,4,5)              7.1527         estimate D2E/DX2                !
 ! D10   D(3,2,4,22)           162.7828         estimate D2E/DX2                !
 ! D11   D(2,4,5,6)           -151.3299         Frozen                          !
 ! D12   D(2,4,5,14)           -29.4803         estimate D2E/DX2                !
 ! D13   D(2,4,5,15)            84.9381         estimate D2E/DX2                !
 ! D14   D(22,4,5,6)            52.4307         estimate D2E/DX2                !
 ! D15   D(22,4,5,14)          174.2803         estimate D2E/DX2                !
 ! D16   D(22,4,5,15)          -71.3012         estimate D2E/DX2                !
 ! D17   D(2,4,22,23)           40.0783         estimate D2E/DX2                !
 ! D18   D(2,4,22,24)          156.3259         estimate D2E/DX2                !
 ! D19   D(2,4,22,25)          -81.4345         estimate D2E/DX2                !
 ! D20   D(5,4,22,23)         -165.3207         estimate D2E/DX2                !
 ! D21   D(5,4,22,24)          -49.0731         estimate D2E/DX2                !
 ! D22   D(5,4,22,25)           73.1666         estimate D2E/DX2                !
 ! D23   D(4,5,6,7)              7.5904         estimate D2E/DX2                !
 ! D24   D(4,5,6,8)           -172.5033         Scan                            !
 ! D25   D(14,5,6,7)          -112.0455         estimate D2E/DX2                !
 ! D26   D(14,5,6,8)            67.8608         estimate D2E/DX2                !
 ! D27   D(15,5,6,7)           131.9284         estimate D2E/DX2                !
 ! D28   D(15,5,6,8)           -48.1653         estimate D2E/DX2                !
 ! D29   D(5,6,8,9)             -7.9387         estimate D2E/DX2                !
 ! D30   D(5,6,8,10)          -179.4622         estimate D2E/DX2                !
 ! D31   D(7,6,8,9)            171.9682         estimate D2E/DX2                !
 ! D32   D(7,6,8,10)             0.4447         estimate D2E/DX2                !
 ! D33   D(6,8,9,16)             6.6591         estimate D2E/DX2                !
 ! D34   D(6,8,9,17)           127.2075         estimate D2E/DX2                !
 ! D35   D(6,8,9,18)          -113.6762         estimate D2E/DX2                !
 ! D36   D(10,8,9,16)          178.4514         estimate D2E/DX2                !
 ! D37   D(10,8,9,17)          -61.0003         estimate D2E/DX2                !
 ! D38   D(10,8,9,18)           58.1161         estimate D2E/DX2                !
 ! D39   D(6,8,10,19)         -129.6524         estimate D2E/DX2                !
 ! D40   D(6,8,10,20)           -9.3555         estimate D2E/DX2                !
 ! D41   D(6,8,10,21)          110.5755         estimate D2E/DX2                !
 ! D42   D(9,8,10,19)           57.9205         estimate D2E/DX2                !
 ! D43   D(9,8,10,20)          178.2175         estimate D2E/DX2                !
 ! D44   D(9,8,10,21)          -61.8515         estimate D2E/DX2                !
 ! D45   D(4,22,25,26)          57.2199         estimate D2E/DX2                !
 ! D46   D(4,22,25,27)         -61.1082         estimate D2E/DX2                !
 ! D47   D(4,22,25,28)         178.2556         estimate D2E/DX2                !
 ! D48   D(23,22,25,26)        -64.5257         estimate D2E/DX2                !
 ! D49   D(23,22,25,27)        177.1462         estimate D2E/DX2                !
 ! D50   D(23,22,25,28)         56.51           estimate D2E/DX2                !
 ! D51   D(24,22,25,26)        178.5304         estimate D2E/DX2                !
 ! D52   D(24,22,25,27)         60.2023         estimate D2E/DX2                !
 ! D53   D(24,22,25,28)        -60.4339         estimate D2E/DX2                !
 ! D54   D(22,25,28,29)        178.4472         estimate D2E/DX2                !
 ! D55   D(26,25,28,29)        -60.5549         estimate D2E/DX2                !
 ! D56   D(27,25,28,29)         57.8509         estimate D2E/DX2                !
 ! D57   D(25,28,29,30)        179.9724         estimate D2E/DX2                !
 ! D58   D(25,28,29,31)        -60.7808         estimate D2E/DX2                !
 ! D59   D(25,28,29,32)         60.6994         estimate D2E/DX2                !
 --------------------------------------------------------------------------------
 Trust Radius=3.00D-01 FncErr=1.00D-07 GrdErr=1.00D-06
 Number of optimizations in scan=  37
 Number of steps in this run=    155 maximum allowed number of steps=    192.
 GradGradGradGradGradGradGradGradGradGradGradGradGradGradGradGradGradGrad

                          Input orientation:                          
 ---------------------------------------------------------------------
 Center     Atomic      Atomic             Coordinates (Angstroms)
 Number     Number       Type             X           Y           Z
 ---------------------------------------------------------------------
      1          6           0        2.530281    2.418795    0.498154
      2          6           0        1.132842    2.163071   -0.048104
      3          8           0        0.559506    3.016868   -0.719279
      4          7           0        0.517263    0.968699    0.289688
      5          6           0       -0.778872    0.746963   -0.346307
      6          6           0       -1.744480   -0.124252    0.466559
      7          8           0       -1.498740   -0.479155    1.616009
      8          7           0       -2.909442   -0.486051   -0.168294
      9          6           0       -3.368733    0.011610   -1.455641
     10          6           0       -3.873798   -1.303939    0.555370
     11          1           0        2.811189    3.427902    0.198776
     12          1           0        3.267438    1.713521    0.102565
     13          1           0        2.553120    2.346966    1.589933
     14          1           0       -1.211169    1.736890   -0.511279
     15          1           0       -0.645092    0.305355   -1.344592
     16          1           0       -2.621971    0.636622   -1.939504
     17          1           0       -3.602279   -0.824870   -2.126384
     18          1           0       -4.282082    0.609091   -1.333506
     19          1           0       -4.166960   -2.166638   -0.054501
     20          1           0       -3.414967   -1.644483    1.481326
     21          1           0       -4.776877   -0.726221    0.792019
     22          6           0        1.291748   -0.187295    0.754564
     23          1           0        2.083320    0.155171    1.421744
     24          1           0        0.633805   -0.825365    1.341453
     25          6           0        1.920914   -0.993895   -0.386225
     26          1           0        2.571486   -0.352954   -1.006968
     27          1           0        1.139174   -1.398179   -1.052193
     28          8           0        2.662532   -2.041339    0.203681
     29          6           0        3.272323   -2.890733   -0.745111
     30          1           0        3.816155   -3.658971   -0.190686
     31          1           0        2.528826   -3.379840   -1.394024
     32          1           0        3.982407   -2.345467   -1.386785
 ---------------------------------------------------------------------
                    Distance matrix (angstroms):
                    1          2          3          4          5
     1  C    0.000000
     2  C    1.522047   0.000000
     3  O    2.392444   1.228071   0.000000
     4  N    2.489674   1.385484   2.283593   0.000000
     5  C    3.802451   2.397694   2.661359   1.460692   0.000000
     6  C    4.974100   3.711564   4.072002   2.518195   1.533677
     7  O    5.087310   4.083608   4.681039   2.814192   2.423275
     8  N    6.202650   4.834496   4.960607   3.750780   2.468064
     9  C    6.664099   5.184026   5.000487   4.366138   2.911829
    10  C    7.407716   6.119705   6.320466   4.951453   3.820705
    11  H    1.089419   2.116033   2.466141   3.364230   4.513656
    12  H    1.094213   2.186618   3.115612   2.855387   4.184297
    13  H    1.094378   2.175815   3.123416   2.781182   4.172674
    14  H    3.934768   2.427045   2.194743   2.054055   1.092727
    15  H    4.236193   2.879764   3.032223   2.112337   1.099767
    16  H    5.971936   4.472814   4.156479   3.864500   2.438743
    17  H    7.417402   5.972304   5.836039   5.101463   3.689303
    18  H    7.282740   5.778280   5.442025   5.079152   3.642259
    19  H    8.135396   6.843561   7.046286   5.647190   4.478098
    20  H    7.267932   6.125291   6.509016   4.869410   4.001032
    21  H    7.960656   6.631636   6.691167   5.581488   4.410227
    22  C    2.896794   2.488724   3.602090   1.467058   2.524326
    23  H    2.485314   2.663742   3.885267   2.096643   3.415899
    24  H    3.851279   3.333265   4.360607   2.082896   2.704885
    25  C    3.577696   3.271363   4.248597   2.505767   3.212635
    26  H    3.154312   3.052785   3.935293   2.765486   3.587644
    27  H    4.348338   3.700100   4.465365   2.790973   2.962906
    28  O    4.471801   4.481117   5.555181   3.697283   4.463225
    29  C    5.503401   5.532100   6.500753   4.853492   5.459309
    30  H    6.250377   6.412228   7.446610   5.703400   6.367947
    31  H    6.099550   5.872319   6.726914   5.078490   5.391575
    32  H    5.325397   5.499000   6.396597   5.079516   5.771958
                    6          7          8          9         10
     6  C    0.000000
     7  O    1.227835   0.000000
     8  N    1.375163   2.274613   0.000000
     9  C    2.520220   3.629429   1.454605   0.000000
    10  C    2.435887   2.728759   1.456919   2.455591   0.000000
    11  H    5.783046   5.987414   6.941137   7.252557   8.197959
    12  H    5.350628   5.460292   6.562418   7.025900   7.765781
    13  H    5.083134   4.940163   6.399760   7.056752   7.463558
    14  H    2.168971   3.085273   2.818375   2.919502   4.180188
    15  H    2.161824   3.179517   2.671569   2.741685   4.077282
    16  H    2.671715   3.892079   2.116653   1.087390   3.399595
    17  H    3.265829   4.306960   2.104504   1.097333   2.737706
    18  H    3.196475   4.198918   2.107414   1.098229   2.719234
    19  H    3.211114   3.571778   2.102064   2.710189   1.096420
    20  H    2.476163   2.246788   2.078164   3.372026   1.088067
    21  H    3.108653   3.389127   2.113574   2.753042   1.097867
    22  C    3.050508   2.934978   4.311719   5.161846   5.288614
    23  H    3.955061   3.642974   5.278926   6.166428   6.194099
    24  H    2.629304   2.177841   3.866403   4.954248   4.600592
    25  C    3.862465   3.995989   4.861866   5.489541   5.878896
    26  H    4.566306   4.843829   5.546320   5.968284   6.699773
    27  H    3.499280   3.862965   4.243176   4.740411   5.265266
    28  O    4.813116   4.663826   5.796911   6.583624   6.587189
    29  C    5.855756   5.844111   6.658035   7.282312   7.434797
    30  H    6.621697   6.451627   7.436503   8.166755   8.077014
    31  H    5.685224   5.804788   6.281018   6.803450   7.007360
    32  H    6.416067   6.522489   7.241528   7.720091   8.159455
                   11         12         13         14         15
    11  H    0.000000
    12  H    1.776660   0.000000
    13  H    1.780545   1.767418   0.000000
    14  H    4.420754   4.520539   4.353982   0.000000
    15  H    4.906950   4.402850   4.796683   1.750470   0.000000
    16  H    6.471685   6.325733   6.493363   2.289275   2.090863
    17  H    8.038968   7.655368   7.858784   3.858573   3.260914
    18  H    7.785119   7.763847   7.634572   3.373202   3.649668
    19  H    8.947491   8.387525   8.260524   4.917609   4.492064
    20  H    8.132591   7.604716   7.180635   4.501209   4.411336
    21  H    8.671068   8.434376   7.988116   4.525459   4.764546
    22  C    3.960713   2.818076   2.951505   3.401388   2.898363
    23  H    3.568783   2.360259   2.247880   4.134256   3.888368
    24  H    4.912941   3.862228   3.716073   3.660833   3.182600
    25  C    4.548308   3.063029   3.932714   4.157255   3.031650
    26  H    3.975695   2.446575   3.746171   4.349901   3.300566
    27  H    5.258480   3.942797   4.796476   3.955421   2.484176
    28  O    5.471263   3.804617   4.603356   5.458181   4.341025
    29  C    6.405366   4.681638   5.779548   6.447579   5.091218
    30  H    7.168361   5.408397   6.390394   7.381875   6.078660
    31  H    6.997292   5.359818   6.457623   6.399041   4.863832
    32  H    6.100618   4.382320   5.737825   6.663736   5.333140
                   16         17         18         19         20
    16  H    0.000000
    17  H    1.769714   0.000000
    18  H    1.767473   1.773988   0.000000
    19  H    3.714632   2.532174   3.058395   0.000000
    20  H    4.187405   3.704379   3.708607   1.787989   0.000000
    21  H    3.736600   3.147457   2.558464   1.778594   1.781333
    22  C    4.822244   5.714706   6.005152   5.862583   4.980436
    23  H    5.802547   6.773162   6.950956   6.829063   5.785626
    24  H    4.847903   5.474514   5.777457   5.176393   4.133167
    25  C    5.070411   5.793305   6.476424   6.208669   5.690574
    26  H    5.368508   6.292152   6.928460   7.042961   6.610391
    27  H    4.367373   4.895298   5.787770   5.453529   5.217239
    28  O    6.300055   6.793884   7.590480   6.835519   6.223011
    29  C    6.972195   7.309983   8.346497   7.506277   7.157514
    30  H    7.934731   8.173874   9.225174   8.122545   7.690443
    31  H    6.554405   6.682415   7.893269   6.935397   6.826989
    32  H    7.267473   7.770887   8.776903   8.259488   7.964834
                   21         22         23         24         25
    21  H    0.000000
    22  C    6.092623   0.000000
    23  H    6.945193   1.090412   0.000000
    24  H    5.439411   1.088329   1.751854   0.000000
    25  C    6.805903   1.532271   2.148367   2.161001   0.000000
    26  H    7.574571   2.183613   2.528861   3.081049   1.104251
    27  H    6.233162   2.180342   3.069963   2.512579   1.103665
    28  O    7.577630   2.370654   2.577561   2.624662   1.412489
    29  C    8.475701   3.671550   3.922565   3.947312   2.356502
    30  H    9.132739   4.395300   4.488912   4.528148   3.276096
    31  H    8.074266   4.042170   4.541291   4.195150   2.660442
    32  H    9.170289   4.059893   4.212785   4.578988   2.660380
                   26         27         28         29         30
    26  H    0.000000
    27  H    1.773713   0.000000
    28  O    2.079568   2.076414   0.000000
    29  C    2.645763   2.621515   1.411921   0.000000
    30  H    3.625640   3.608269   2.025612   1.092396   0.000000
    31  H    3.051831   2.444373   2.088570   1.101409   1.784139
    32  H    2.470843   3.015507   2.089054   1.101490   1.784260
                   31         32
    31  H    0.000000
    32  H    1.784062   0.000000
 Stoichiometry    C9H18N2O3
 Framework group  C1[X(C9H18N2O3)]
 Deg. of freedom    90
 Full point group                 C1      NOp   1
 Largest Abelian subgroup         C1      NOp   1
 Largest concise Abelian subgroup C1      NOp   1
                         Standard orientation:                         
 ---------------------------------------------------------------------
 Center     Atomic      Atomic             Coordinates (Angstroms)
 Number     Number       Type             X           Y           Z
 ---------------------------------------------------------------------
      1          6           0       -2.530281    2.418795   -0.498154
      2          6           0       -1.132842    2.163071    0.048104
      3          8           0       -0.559506    3.016868    0.719279
      4          7           0       -0.517263    0.968699   -0.289688
      5          6           0        0.778872    0.746963    0.346307
      6          6           0        1.744480   -0.124252   -0.466559
      7          8           0        1.498740   -0.479155   -1.616009
      8          7           0        2.909442   -0.486051    0.168294
      9          6           0        3.368733    0.011610    1.455641
     10          6           0        3.873798   -1.303939   -0.555370
     11          1           0       -2.811189    3.427902   -0.198776
     12          1           0       -3.267438    1.713521   -0.102565
     13          1           0       -2.553120    2.346966   -1.589933
     14          1           0        1.211169    1.736890    0.511279
     15          1           0        0.645092    0.305355    1.344592
     16          1           0        2.621971    0.636622    1.939504
     17          1           0        3.602279   -0.824870    2.126384
     18          1           0        4.282082    0.609091    1.333506
     19          1           0        4.166960   -2.166638    0.054501
     20          1           0        3.414967   -1.644483   -1.481326
     21          1           0        4.776877   -0.726221   -0.792019
     22          6           0       -1.291748   -0.187295   -0.754564
     23          1           0       -2.083320    0.155171   -1.421744
     24          1           0       -0.633805   -0.825365   -1.341453
     25          6           0       -1.920914   -0.993895    0.386225
     26          1           0       -2.571486   -0.352954    1.006968
     27          1           0       -1.139174   -1.398179    1.052193
     28          8           0       -2.662532   -2.041339   -0.203681
     29          6           0       -3.272323   -2.890733    0.745111
     30          1           0       -3.816155   -3.658971    0.190686
     31          1           0       -2.528826   -3.379840    1.394024
     32          1           0       -3.982407   -2.345467    1.386785
 ---------------------------------------------------------------------
 Rotational constants (GHZ):      0.7263326      0.4140922      0.3054806
 Standard basis: 6-31G(d,p) (6D, 7F)
 There are   300 symmetry adapted basis functions of A   symmetry.
 Integral buffers will be    131072 words long.
 Raffenetti 2 integral format.
 Two-electron integral symmetry is turned on.
   300 basis functions,   518 primitive gaussians,   300 cartesian basis functions
    55 alpha electrons       55 beta electrons
       nuclear repulsion energy       960.6334916415 Hartrees.
 NAtoms=   32 NActive=   32 NUniq=   32 SFac= 1.00D+00 NAtFMM=   60 NAOKFM=F Big=F
 One-electron integrals computed using PRISM.
 NBasis=   300 RedAO= T  NBF=   300
 NBsUse=   300 1.00D-06 NBFU=   300
 Harris functional with IExCor=  402 diagonalized for initial guess.
 ExpMin= 1.61D-01 ExpMax= 5.48D+03 ExpMxC= 8.25D+02 IAcc=1 IRadAn=         1 AccDes= 0.00D+00
 HarFok:  IExCor=  402 AccDes= 0.00D+00 IRadAn=         1 IDoV= 1
 ScaDFX=  1.000000  1.000000  1.000000  1.000000
 FoFCou: FMM=F IPFlag=           0 FMFlag=      100000 FMFlg1=           0
         NFxFlg=           0 DoJE=T BraDBF=F KetDBF=T FulRan=T
         Omega=  0.000000  0.000000  1.000000  0.000000  0.000000 ICntrl=     500 IOpCl=  0
         NMat0=    1 NMatS0=    1 NMatT0=    0 NMatD0=    1 NMtDS0=    0 NMtDT0=    0
         I1Cent=           4 NGrid=           0.
 Petite list used in FoFCou.
 Initial guess orbital symmetries:
       Occupied  (A) (A) (A) (A) (A) (A) (A) (A) (A) (A) (A) (A)
                 (A) (A) (A) (A) (A) (A) (A) (A) (A) (A) (A) (A)
                 (A) (A) (A) (A) (A) (A) (A) (A) (A) (A) (A) (A)
                 (A) (A) (A) (A) (A) (A) (A) (A) (A) (A) (A) (A)
                 (A) (A) (A) (A) (A) (A) (A)
       Virtual   (A) (A) (A) (A) (A) (A) (A) (A) (A) (A) (A) (A)
                 (A) (A) (A) (A) (A) (A) (A) (A) (A) (A) (A) (A)
                 (A) (A) (A) (A) (A) (A) (A) (A) (A) (A) (A) (A)
                 (A) (A) (A) (A) (A) (A) (A) (A) (A) (A) (A) (A)
                 (A) (A) (A) (A) (A) (A) (A) (A) (A) (A) (A) (A)
                 (A) (A) (A) (A) (A) (A) (A) (A) (A) (A) (A) (A)
                 (A) (A) (A) (A) (A) (A) (A) (A) (A) (A) (A) (A)
                 (A) (A) (A) (A) (A) (A) (A) (A) (A) (A) (A) (A)
                 (A) (A) (A) (A) (A) (A) (A) (A) (A) (A) (A) (A)
                 (A) (A) (A) (A) (A) (A) (A) (A) (A) (A) (A) (A)
                 (A) (A) (A) (A) (A) (A) (A) (A) (A) (A) (A) (A)
                 (A) (A) (A) (A) (A) (A) (A) (A) (A) (A) (A) (A)
                 (A) (A) (A) (A) (A) (A) (A) (A) (A) (A) (A) (A)
                 (A) (A) (A) (A) (A) (A) (A) (A) (A) (A) (A) (A)
                 (A) (A) (A) (A) (A) (A) (A) (A) (A) (A) (A) (A)
                 (A) (A) (A) (A) (A) (A) (A) (A) (A) (A) (A) (A)
                 (A) (A) (A) (A) (A) (A) (A) (A) (A) (A) (A) (A)
                 (A) (A) (A) (A) (A) (A) (A) (A) (A) (A) (A) (A)
                 (A) (A) (A) (A) (A) (A) (A) (A) (A) (A) (A) (A)
                 (A) (A) (A) (A) (A) (A) (A) (A) (A) (A) (A) (A)
                 (A) (A) (A) (A) (A)
 The electronic state of the initial guess is 1-A.
 Requested convergence on RMS density matrix=1.00D-08 within 128 cycles.
 Requested convergence on MAX density matrix=1.00D-06.
 Requested convergence on             energy=1.00D-06.
 No special actions if energy rises.
 Keep R1 ints in memory in canonical form, NReq=1033484783.
 Integral accuracy reduced to 1.0D-05 until final iterations.
 Initial convergence to 1.0D-05 achieved.  Increase integral accuracy.
 SCF Done:  E(RB3LYP) =  -688.992805931     A.U. after   14 cycles
             Convg  =    0.7372D-08             -V/T =  2.0093

 **********************************************************************

            Population analysis using the SCF density.

 **********************************************************************

 Orbital symmetries:
       Occupied  (A) (A) (A) (A) (A) (A) (A) (A) (A) (A) (A) (A)
                 (A) (A) (A) (A) (A) (A) (A) (A) (A) (A) (A) (A)
                 (A) (A) (A) (A) (A) (A) (A) (A) (A) (A) (A) (A)
                 (A) (A) (A) (A) (A) (A) (A) (A) (A) (A) (A) (A)
                 (A) (A) (A) (A) (A) (A) (A)
       Virtual   (A) (A) (A) (A) (A) (A) (A) (A) (A) (A) (A) (A)
                 (A) (A) (A) (A) (A) (A) (A) (A) (A) (A) (A) (A)
                 (A) (A) (A) (A) (A) (A) (A) (A) (A) (A) (A) (A)
                 (A) (A) (A) (A) (A) (A) (A) (A) (A) (A) (A) (A)
                 (A) (A) (A) (A) (A) (A) (A) (A) (A) (A) (A) (A)
                 (A) (A) (A) (A) (A) (A) (A) (A) (A) (A) (A) (A)
                 (A) (A) (A) (A) (A) (A) (A) (A) (A) (A) (A) (A)
                 (A) (A) (A) (A) (A) (A) (A) (A) (A) (A) (A) (A)
                 (A) (A) (A) (A) (A) (A) (A) (A) (A) (A) (A) (A)
                 (A) (A) (A) (A) (A) (A) (A) (A) (A) (A) (A) (A)
                 (A) (A) (A) (A) (A) (A) (A) (A) (A) (A) (A) (A)
                 (A) (A) (A) (A) (A) (A) (A) (A) (A) (A) (A) (A)
                 (A) (A) (A) (A) (A) (A) (A) (A) (A) (A) (A) (A)
                 (A) (A) (A) (A) (A) (A) (A) (A) (A) (A) (A) (A)
                 (A) (A) (A) (A) (A) (A) (A) (A) (A) (A) (A) (A)
                 (A) (A) (A) (A) (A) (A) (A) (A) (A) (A) (A) (A)
                 (A) (A) (A) (A) (A) (A) (A) (A) (A) (A) (A) (A)
                 (A) (A) (A) (A) (A) (A) (A) (A) (A) (A) (A) (A)
                 (A) (A) (A) (A) (A) (A) (A) (A) (A) (A) (A) (A)
                 (A) (A) (A) (A) (A) (A) (A) (A) (A) (A) (A) (A)
                 (A) (A) (A) (A) (A)
 The electronic state is 1-A.
 Alpha  occ. eigenvalues --  -19.15343 -19.11399 -19.10781 -14.37079 -14.36175
 Alpha  occ. eigenvalues --  -10.29109 -10.28227 -10.23642 -10.23233 -10.23171
 Alpha  occ. eigenvalues --  -10.22777 -10.21596 -10.21230 -10.18705  -1.03810
 Alpha  occ. eigenvalues --   -1.03627  -1.02638  -0.93691  -0.92719  -0.77105
 Alpha  occ. eigenvalues --   -0.75135  -0.73139  -0.71902  -0.68418  -0.66686
 Alpha  occ. eigenvalues --   -0.62193  -0.56184  -0.53404  -0.51277  -0.50084
 Alpha  occ. eigenvalues --   -0.49320  -0.48209  -0.47477  -0.46783  -0.46256
 Alpha  occ. eigenvalues --   -0.45316  -0.43317  -0.42874  -0.41508  -0.41018
 Alpha  occ. eigenvalues --   -0.40993  -0.40765  -0.38974  -0.38789  -0.38568
 Alpha  occ. eigenvalues --   -0.37677  -0.36125  -0.35222  -0.34500  -0.32401
 Alpha  occ. eigenvalues --   -0.26081  -0.25741  -0.24707  -0.24419  -0.23223
 Alpha virt. eigenvalues --    0.02125   0.02657   0.07353   0.08486   0.09365
 Alpha virt. eigenvalues --    0.10729   0.11785   0.13188   0.13750   0.14473
 Alpha virt. eigenvalues --    0.14617   0.15255   0.15690   0.16107   0.16410
 Alpha virt. eigenvalues --    0.16981   0.17424   0.18618   0.19051   0.19384
 Alpha virt. eigenvalues --    0.20229   0.21113   0.21642   0.22470   0.22982
 Alpha virt. eigenvalues --    0.23388   0.26225   0.27714   0.29397   0.33674
 Alpha virt. eigenvalues --    0.35035   0.38160   0.40286   0.47808   0.49161
 Alpha virt. eigenvalues --    0.50066   0.50434   0.51558   0.51913   0.53218
 Alpha virt. eigenvalues --    0.53900   0.55275   0.55553   0.56105   0.57152
 Alpha virt. eigenvalues --    0.60049   0.60174   0.61770   0.64482   0.65538
 Alpha virt. eigenvalues --    0.66201   0.67634   0.68225   0.68555   0.71126
 Alpha virt. eigenvalues --    0.73081   0.74428   0.75146   0.75680   0.76793
 Alpha virt. eigenvalues --    0.78106   0.79690   0.80240   0.81503   0.82888
 Alpha virt. eigenvalues --    0.83452   0.84071   0.85104   0.85692   0.85788
 Alpha virt. eigenvalues --    0.86928   0.87438   0.88109   0.89330   0.90717
 Alpha virt. eigenvalues --    0.91030   0.91771   0.92357   0.93267   0.94559
 Alpha virt. eigenvalues --    0.95887   0.96787   0.97862   0.98983   1.00717
 Alpha virt. eigenvalues --    1.02400   1.04094   1.05786   1.08132   1.10718
 Alpha virt. eigenvalues --    1.12472   1.15098   1.18239   1.18735   1.22654
 Alpha virt. eigenvalues --    1.26421   1.28022   1.29086   1.30007   1.31879
 Alpha virt. eigenvalues --    1.34241   1.35587   1.37312   1.38018   1.39578
 Alpha virt. eigenvalues --    1.40670   1.43279   1.48225   1.49156   1.50166
 Alpha virt. eigenvalues --    1.57823   1.60393   1.60735   1.62466   1.66377
 Alpha virt. eigenvalues --    1.69235   1.70459   1.71221   1.72012   1.72621
 Alpha virt. eigenvalues --    1.74956   1.77206   1.79000   1.79656   1.80967
 Alpha virt. eigenvalues --    1.83790   1.84271   1.86050   1.87111   1.88370
 Alpha virt. eigenvalues --    1.88774   1.90299   1.90706   1.91406   1.93913
 Alpha virt. eigenvalues --    1.95750   1.97130   1.97469   1.98233   1.99616
 Alpha virt. eigenvalues --    2.00546   2.01381   2.01830   2.02705   2.02719
 Alpha virt. eigenvalues --    2.03156   2.03225   2.03842   2.05317   2.06615
 Alpha virt. eigenvalues --    2.07546   2.08370   2.09952   2.10882   2.11136
 Alpha virt. eigenvalues --    2.12545   2.14688   2.15544   2.15867   2.19655
 Alpha virt. eigenvalues --    2.21711   2.24899   2.25568   2.27282   2.29245
 Alpha virt. eigenvalues --    2.31647   2.32862   2.34806   2.38404   2.40064
 Alpha virt. eigenvalues --    2.41687   2.43031   2.47048   2.49689   2.51262
 Alpha virt. eigenvalues --    2.51771   2.52453   2.53939   2.56073   2.57435
 Alpha virt. eigenvalues --    2.57918   2.60201   2.60767   2.63266   2.64863
 Alpha virt. eigenvalues --    2.66328   2.67575   2.68415   2.69159   2.70818
 Alpha virt. eigenvalues --    2.71919   2.72373   2.75847   2.78009   2.79525
 Alpha virt. eigenvalues --    2.81495   2.82589   2.83882   2.84813   2.86090
 Alpha virt. eigenvalues --    2.87594   2.88776   2.89693   2.90145   2.93828
 Alpha virt. eigenvalues --    2.95258   2.98023   2.98326   3.04953   3.05070
 Alpha virt. eigenvalues --    3.11341   3.14133   3.15188   3.17328   3.17766
 Alpha virt. eigenvalues --    3.22703   3.26575   3.28247   3.32558   3.37018
 Alpha virt. eigenvalues --    3.37552   3.39873   3.41826   3.42634   3.43179
 Alpha virt. eigenvalues --    3.43791   3.44420   3.45720   3.47696   3.49311
 Alpha virt. eigenvalues --    3.56333   3.95219   4.00086   4.08081   4.13865
 Alpha virt. eigenvalues --    4.17149   4.30593   4.36467   4.40746   4.45678
 Alpha virt. eigenvalues --    4.49065   4.51616   4.59752   4.68589   4.70519
          Condensed to atoms (all electrons):
              1          2          3          4          5          6
     1  C    5.145575   0.354881  -0.079433  -0.120232   0.005684  -0.000031
     2  C    0.354881   4.370719   0.580607   0.257767  -0.027639   0.003888
     3  O   -0.079433   0.580607   8.082816  -0.099915  -0.008243   0.000837
     4  N   -0.120232   0.257767  -0.099915   7.097005   0.266024  -0.032752
     5  C    0.005684  -0.027639  -0.008243   0.266024   5.090978   0.291550
     6  C   -0.000031   0.003888   0.000837  -0.032752   0.291550   4.436212
     7  O   -0.000009   0.000040  -0.000002   0.001884  -0.084347   0.563350
     8  N    0.000001  -0.000045  -0.000001   0.002484  -0.109678   0.273257
     9  C    0.000000   0.000008   0.000002   0.000336   0.000355  -0.027525
    10  C    0.000000   0.000002   0.000000  -0.000059   0.005376  -0.026956
    11  H    0.367291  -0.023379   0.005315   0.004666  -0.000109   0.000001
    12  H    0.362194  -0.021385   0.001616   0.000633  -0.000304  -0.000011
    13  H    0.363575  -0.021787   0.001404   0.003554  -0.000042   0.000006
    14  H    0.001253  -0.004763   0.026545  -0.038128   0.366001  -0.016368
    15  H   -0.000134  -0.002833   0.002070  -0.047522   0.368931  -0.041364
    16  H    0.000000  -0.000001  -0.000007   0.000078   0.007820  -0.009847
    17  H    0.000000   0.000000   0.000000  -0.000005  -0.000352   0.001767
    18  H    0.000000   0.000000   0.000000  -0.000008  -0.000298   0.000124
    19  H    0.000000   0.000000   0.000000   0.000001  -0.000115   0.002165
    20  H    0.000000   0.000000   0.000000  -0.000008   0.001099  -0.003209
    21  H    0.000000   0.000000   0.000000   0.000000  -0.000103  -0.000149
    22  C    0.000600  -0.027733   0.002452   0.261005  -0.042383  -0.001403
    23  H    0.008224  -0.010175   0.000066  -0.030543   0.004828  -0.000029
    24  H   -0.000206   0.002946  -0.000096  -0.030182  -0.008747   0.002386
    25  C   -0.002528  -0.002285   0.000058  -0.056107  -0.002532  -0.000903
    26  H   -0.000874   0.004190  -0.000163   0.002607  -0.000392   0.000030
    27  H    0.000136  -0.000527   0.000000  -0.000170   0.002364   0.000258
    28  O    0.000008   0.000014   0.000000   0.002138  -0.000049   0.000014
    29  C    0.000001  -0.000005   0.000000  -0.000133   0.000001   0.000000
    30  H    0.000000   0.000000   0.000000   0.000001   0.000000   0.000000
    31  H    0.000000   0.000000   0.000000   0.000009  -0.000001   0.000000
    32  H   -0.000002   0.000000   0.000000   0.000009   0.000000   0.000000
              7          8          9         10         11         12
     1  C   -0.000009   0.000001   0.000000   0.000000   0.367291   0.362194
     2  C    0.000040  -0.000045   0.000008   0.000002  -0.023379  -0.021385
     3  O   -0.000002  -0.000001   0.000002   0.000000   0.005315   0.001616
     4  N    0.001884   0.002484   0.000336  -0.000059   0.004666   0.000633
     5  C   -0.084347  -0.109678   0.000355   0.005376  -0.000109  -0.000304
     6  C    0.563350   0.273257  -0.027525  -0.026956   0.000001  -0.000011
     7  O    8.102462  -0.092355   0.002671  -0.011870   0.000000   0.000000
     8  N   -0.092355   7.019964   0.298258   0.291951   0.000000   0.000000
     9  C    0.002671   0.298258   4.808121  -0.051552   0.000000   0.000000
    10  C   -0.011870   0.291951  -0.051552   4.817303   0.000000   0.000000
    11  H    0.000000   0.000000   0.000000   0.000000   0.549346  -0.023153
    12  H    0.000000   0.000000   0.000000   0.000000  -0.023153   0.579206
    13  H   -0.000001   0.000000   0.000000   0.000000  -0.021812  -0.028588
    14  H    0.000327  -0.000513  -0.000665  -0.000162  -0.000028  -0.000029
    15  H    0.001719   0.004815  -0.004381  -0.000221   0.000003   0.000043
    16  H    0.000060  -0.027703   0.386104   0.004289   0.000000   0.000000
    17  H   -0.000043  -0.045310   0.383855  -0.002659   0.000000   0.000000
    18  H   -0.000008  -0.045443   0.383409  -0.002214   0.000000   0.000000
    19  H    0.000681  -0.044977  -0.001679   0.384674   0.000000   0.000000
    20  H    0.023353  -0.035111   0.004299   0.384181   0.000000   0.000000
    21  H    0.000700  -0.045288  -0.002049   0.388312   0.000000   0.000000
    22  C   -0.013823  -0.000162   0.000008   0.000000   0.000333  -0.000184
    23  H    0.000354  -0.000004   0.000000   0.000000   0.000098  -0.002604
    24  H    0.022559   0.000075  -0.000016   0.000020  -0.000005   0.000136
    25  C    0.000302   0.000058  -0.000005  -0.000001   0.000003   0.000413
    26  H   -0.000014   0.000000   0.000000   0.000000  -0.000039   0.003399
    27  H    0.000184  -0.000075   0.000000  -0.000001   0.000001  -0.000075
    28  O    0.000000   0.000000   0.000000   0.000000   0.000000  -0.000061
    29  C    0.000000   0.000000   0.000000   0.000000   0.000000  -0.000002
    30  H    0.000000   0.000000   0.000000   0.000000   0.000000   0.000000
    31  H    0.000000   0.000000   0.000000   0.000000   0.000000   0.000000
    32  H    0.000000   0.000000   0.000000   0.000000   0.000000   0.000004
             13         14         15         16         17         18
     1  C    0.363575   0.001253  -0.000134   0.000000   0.000000   0.000000
     2  C   -0.021787  -0.004763  -0.002833  -0.000001   0.000000   0.000000
     3  O    0.001404   0.026545   0.002070  -0.000007   0.000000   0.000000
     4  N    0.003554  -0.038128  -0.047522   0.000078  -0.000005  -0.000008
     5  C   -0.000042   0.366001   0.368931   0.007820  -0.000352  -0.000298
     6  C    0.000006  -0.016368  -0.041364  -0.009847   0.001767   0.000124
     7  O   -0.000001   0.000327   0.001719   0.000060  -0.000043  -0.000008
     8  N    0.000000  -0.000513   0.004815  -0.027703  -0.045310  -0.045443
     9  C    0.000000  -0.000665  -0.004381   0.386104   0.383855   0.383409
    10  C    0.000000  -0.000162  -0.000221   0.004289  -0.002659  -0.002214
    11  H   -0.021812  -0.000028   0.000003   0.000000   0.000000   0.000000
    12  H   -0.028588  -0.000029   0.000043   0.000000   0.000000   0.000000
    13  H    0.567328  -0.000067  -0.000007   0.000000   0.000000   0.000000
    14  H   -0.000067   0.524975  -0.036333  -0.000262  -0.000024   0.000316
    15  H   -0.000007  -0.036333   0.632313   0.002014   0.000318   0.000165
    16  H    0.000000  -0.000262   0.002014   0.557778  -0.027414  -0.028129
    17  H    0.000000  -0.000024   0.000318  -0.027414   0.612070  -0.046977
    18  H    0.000000   0.000316   0.000165  -0.028129  -0.046977   0.610494
    19  H    0.000000  -0.000009   0.000019   0.000032   0.006590  -0.002031
    20  H    0.000000  -0.000017  -0.000048  -0.000235  -0.000002  -0.000109
    21  H    0.000000   0.000033  -0.000011  -0.000029  -0.001864   0.007298
    22  C   -0.004139   0.003867  -0.001115   0.000012   0.000000   0.000000
    23  H    0.001550  -0.000134  -0.000185   0.000000   0.000000   0.000000
    24  H    0.000105   0.000177  -0.001174  -0.000004   0.000002  -0.000001
    25  C    0.000225  -0.000116   0.003470  -0.000001   0.000000   0.000000
    26  H    0.000068  -0.000024  -0.000189   0.000000   0.000000   0.000000
    27  H   -0.000010   0.000035   0.001297  -0.000012   0.000002   0.000000
    28  O   -0.000009   0.000000  -0.000060   0.000000   0.000000   0.000000
    29  C    0.000000   0.000000   0.000006   0.000000   0.000000   0.000000
    30  H    0.000000   0.000000   0.000000   0.000000   0.000000   0.000000
    31  H    0.000000   0.000000   0.000002   0.000000   0.000000   0.000000
    32  H    0.000000   0.000000   0.000000   0.000000   0.000000   0.000000
             19         20         21         22         23         24
     1  C    0.000000   0.000000   0.000000   0.000600   0.008224  -0.000206
     2  C    0.000000   0.000000   0.000000  -0.027733  -0.010175   0.002946
     3  O    0.000000   0.000000   0.000000   0.002452   0.000066  -0.000096
     4  N    0.000001  -0.000008   0.000000   0.261005  -0.030543  -0.030182
     5  C   -0.000115   0.001099  -0.000103  -0.042383   0.004828  -0.008747
     6  C    0.002165  -0.003209  -0.000149  -0.001403  -0.000029   0.002386
     7  O    0.000681   0.023353   0.000700  -0.013823   0.000354   0.022559
     8  N   -0.044977  -0.035111  -0.045288  -0.000162  -0.000004   0.000075
     9  C   -0.001679   0.004299  -0.002049   0.000008   0.000000  -0.000016
    10  C    0.384674   0.384181   0.388312   0.000000   0.000000   0.000020
    11  H    0.000000   0.000000   0.000000   0.000333   0.000098  -0.000005
    12  H    0.000000   0.000000   0.000000  -0.000184  -0.002604   0.000136
    13  H    0.000000   0.000000   0.000000  -0.004139   0.001550   0.000105
    14  H   -0.000009  -0.000017   0.000033   0.003867  -0.000134   0.000177
    15  H    0.000019  -0.000048  -0.000011  -0.001115  -0.000185  -0.001174
    16  H    0.000032  -0.000235  -0.000029   0.000012   0.000000  -0.000004
    17  H    0.006590  -0.000002  -0.001864   0.000000   0.000000   0.000002
    18  H   -0.002031  -0.000109   0.007298   0.000000   0.000000  -0.000001
    19  H    0.612522  -0.023015  -0.044769   0.000000   0.000000   0.000002
    20  H   -0.023015   0.512903  -0.026155   0.000003   0.000000   0.000013
    21  H   -0.044769  -0.026155   0.609709   0.000000   0.000000  -0.000001
    22  C    0.000000   0.000003   0.000000   4.934189   0.374514   0.373245
    23  H    0.000000   0.000000   0.000000   0.374514   0.599276  -0.024425
    24  H    0.000002   0.000013  -0.000001   0.373245  -0.024425   0.536230
    25  C    0.000000  -0.000001   0.000000   0.351248  -0.045494  -0.042778
    26  H    0.000000   0.000000   0.000000  -0.039604  -0.008460   0.005876
    27  H    0.000000   0.000000   0.000000  -0.037739   0.006690  -0.007571
    28  O    0.000000   0.000000   0.000000  -0.039642   0.005614   0.005402
    29  C    0.000000   0.000000   0.000000   0.004323  -0.000114  -0.000113
    30  H    0.000000   0.000000   0.000000  -0.000243   0.000006   0.000007
    31  H    0.000000   0.000000   0.000000   0.000064   0.000055  -0.000059
    32  H    0.000000   0.000000   0.000000   0.000029  -0.000065   0.000042
             25         26         27         28         29         30
     1  C   -0.002528  -0.000874   0.000136   0.000008   0.000001   0.000000
     2  C   -0.002285   0.004190  -0.000527   0.000014  -0.000005   0.000000
     3  O    0.000058  -0.000163   0.000000   0.000000   0.000000   0.000000
     4  N   -0.056107   0.002607  -0.000170   0.002138  -0.000133   0.000001
     5  C   -0.002532  -0.000392   0.002364  -0.000049   0.000001   0.000000
     6  C   -0.000903   0.000030   0.000258   0.000014   0.000000   0.000000
     7  O    0.000302  -0.000014   0.000184   0.000000   0.000000   0.000000
     8  N    0.000058   0.000000  -0.000075   0.000000   0.000000   0.000000
     9  C   -0.000005   0.000000   0.000000   0.000000   0.000000   0.000000
    10  C   -0.000001   0.000000  -0.000001   0.000000   0.000000   0.000000
    11  H    0.000003  -0.000039   0.000001   0.000000   0.000000   0.000000
    12  H    0.000413   0.003399  -0.000075  -0.000061  -0.000002   0.000000
    13  H    0.000225   0.000068  -0.000010  -0.000009   0.000000   0.000000
    14  H   -0.000116  -0.000024   0.000035   0.000000   0.000000   0.000000
    15  H    0.003470  -0.000189   0.001297  -0.000060   0.000006   0.000000
    16  H   -0.000001   0.000000  -0.000012   0.000000   0.000000   0.000000
    17  H    0.000000   0.000000   0.000002   0.000000   0.000000   0.000000
    18  H    0.000000   0.000000   0.000000   0.000000   0.000000   0.000000
    19  H    0.000000   0.000000   0.000000   0.000000   0.000000   0.000000
    20  H   -0.000001   0.000000   0.000000   0.000000   0.000000   0.000000
    21  H    0.000000   0.000000   0.000000   0.000000   0.000000   0.000000
    22  C    0.351248  -0.039604  -0.037739  -0.039642   0.004323  -0.000243
    23  H   -0.045494  -0.008460   0.006690   0.005614  -0.000114   0.000006
    24  H   -0.042778   0.005876  -0.007571   0.005402  -0.000113   0.000007
    25  C    4.802103   0.357069   0.360452   0.234590  -0.033901   0.005488
    26  H    0.357069   0.698448  -0.064345  -0.039239  -0.006356  -0.000109
    27  H    0.360452  -0.064345   0.696316  -0.039206  -0.006603  -0.000114
    28  O    0.234590  -0.039239  -0.039206   8.200037   0.259028  -0.032904
    29  C   -0.033901  -0.006356  -0.006603   0.259028   4.708541   0.394727
    30  H    0.005488  -0.000109  -0.000114  -0.032904   0.394727   0.585108
    31  H   -0.009400  -0.002689   0.013893  -0.037614   0.369688  -0.034800
    32  H   -0.009255   0.013310  -0.002861  -0.037527   0.369728  -0.035134
             31         32
     1  C    0.000000  -0.000002
     2  C    0.000000   0.000000
     3  O    0.000000   0.000000
     4  N    0.000009   0.000009
     5  C   -0.000001   0.000000
     6  C    0.000000   0.000000
     7  O    0.000000   0.000000
     8  N    0.000000   0.000000
     9  C    0.000000   0.000000
    10  C    0.000000   0.000000
    11  H    0.000000   0.000000
    12  H    0.000000   0.000004
    13  H    0.000000   0.000000
    14  H    0.000000   0.000000
    15  H    0.000002   0.000000
    16  H    0.000000   0.000000
    17  H    0.000000   0.000000
    18  H    0.000000   0.000000
    19  H    0.000000   0.000000
    20  H    0.000000   0.000000
    21  H    0.000000   0.000000
    22  C    0.000064   0.000029
    23  H    0.000055  -0.000065
    24  H   -0.000059   0.000042
    25  C   -0.009400  -0.009255
    26  H   -0.002689   0.013310
    27  H    0.013893  -0.002861
    28  O   -0.037614  -0.037527
    29  C    0.369688   0.369728
    30  H   -0.034800  -0.035134
    31  H    0.662419  -0.052932
    32  H   -0.052932   0.663497
 Mulliken atomic charges:
              1
     1  C   -0.405975
     2  C    0.567498
     3  O   -0.515928
     4  N   -0.444438
     5  C   -0.125675
     6  C    0.584702
     7  O   -0.518175
     8  N   -0.444200
     9  C   -0.179555
    10  C   -0.180412
    11  H    0.141469
    12  H    0.128753
    13  H    0.138645
    14  H    0.174113
    15  H    0.118392
    16  H    0.135458
    17  H    0.120046
    18  H    0.123410
    19  H    0.109908
    20  H    0.162058
    21  H    0.114368
    22  C   -0.097720
    23  H    0.120958
    24  H    0.166153
    25  C    0.089826
    26  H    0.077499
    27  H    0.077682
    28  O   -0.480535
    29  C   -0.058815
    30  H    0.117968
    31  H    0.091365
    32  H    0.091156
 Sum of Mulliken atomic charges =   0.00000
 Mulliken charges with hydrogens summed into heavy atoms:
              1
     1  C    0.002892
     2  C    0.567498
     3  O   -0.515928
     4  N   -0.444438
     5  C    0.166830
     6  C    0.584702
     7  O   -0.518175
     8  N   -0.444200
     9  C    0.199359
    10  C    0.205922
    22  C    0.189391
    25  C    0.245007
    28  O   -0.480535
    29  C    0.241675
 Sum of Mulliken charges with hydrogens summed into heavy atoms =   0.00000
 Electronic spatial extent (au):  <R**2>=           3833.3619
 Charge=              0.0000 electrons
 Dipole moment (field-independent basis, Debye):
    X=              0.8205    Y=             -2.3901    Z=              2.6443  Tot=              3.6576
 Quadrupole moment (field-independent basis, Debye-Ang):
   XX=            -68.1059   YY=            -92.5540   ZZ=            -87.9823
   XY=             -0.7261   XZ=              3.7360   YZ=             -7.8390
 Traceless Quadrupole moment (field-independent basis, Debye-Ang):
   XX=             14.7748   YY=             -9.6732   ZZ=             -5.1015
   XY=             -0.7261   XZ=              3.7360   YZ=             -7.8390
 Octapole moment (field-independent basis, Debye-Ang**2):
  XXX=             28.1577  YYY=            -48.9343  ZZZ=              4.7255  XYY=             -8.3143
  XXY=             -5.8906  XXZ=             15.1364  XZZ=             -2.8094  YZZ=             -1.6102
  YYZ=            -10.3362  XYZ=             12.2747
 Hexadecapole moment (field-independent basis, Debye-Ang**3):
 XXXX=          -2777.4218 YYYY=          -1588.0409 ZZZZ=           -446.4346 XXXY=              3.5555
 XXXZ=            -15.7554 YYYX=             47.6614 YYYZ=            -51.6196 ZZZX=             19.6611
 ZZZY=              3.6901 XXYY=           -667.4651 XXZZ=           -560.5486 YYZZ=           -331.9225
 XXYZ=            -16.7964 YYXZ=             -8.0272 ZZXY=              3.6007
 N-N= 9.606334916415D+02 E-N=-3.527017691091D+03  KE= 6.826164797190D+02
 Calling FoFJK, ICntrl=      2127 FMM=F ISym2X=0 I1Cent= 0 IOpClX= 0 NMat=1 NMatS=1 NMatT=0.
 ***** Axes restored to original set *****
 -------------------------------------------------------------------
 Center     Atomic                   Forces (Hartrees/Bohr)
 Number     Number              X              Y              Z
 -------------------------------------------------------------------
      1        6          -0.000001684   -0.000001163    0.000003271
      2        6          -0.001811982    0.001804811    0.003067610
      3        8           0.000003908    0.000000657    0.000002471
      4        7           0.001973433   -0.001239482   -0.003580737
      5        6           0.001131662   -0.003514054   -0.001103637
      6        6          -0.001293400    0.002947120    0.001621008
      7        8          -0.000002201   -0.000001968   -0.000000927
      8        7           0.000005919    0.000000617    0.000002070
      9        6          -0.000003197    0.000001169   -0.000000385
     10        6          -0.000001149    0.000004152   -0.000002640
     11        1           0.000002266   -0.000001395    0.000001326
     12        1           0.000002002   -0.000002137   -0.000000270
     13        1           0.000001401   -0.000001025    0.000000415
     14        1           0.000003000    0.000000171   -0.000000078
     15        1           0.000001315    0.000003034    0.000001990
     16        1          -0.000001020    0.000000778    0.000000502
     17        1          -0.000000477    0.000002510   -0.000000123
     18        1          -0.000000186    0.000002817   -0.000000814
     19        1          -0.000000975    0.000001330   -0.000001363
     20        1          -0.000000322    0.000002072   -0.000001843
     21        1          -0.000000818    0.000001226   -0.000001020
     22        6          -0.000000059    0.000003265   -0.000004280
     23        1          -0.000000405   -0.000002027    0.000002938
     24        1           0.000000358   -0.000001982   -0.000000414
     25        6          -0.000000272    0.000001483   -0.000004751
     26        1          -0.000000098   -0.000002303    0.000001645
     27        1          -0.000001807   -0.000000414    0.000000941
     28        8          -0.000000619   -0.000004064   -0.000000340
     29        6          -0.000002154   -0.000000693    0.000000881
     30        1          -0.000000515   -0.000002223   -0.000000983
     31        1          -0.000001265   -0.000001149   -0.000001243
     32        1          -0.000000657   -0.000001131   -0.000001217
 -------------------------------------------------------------------
 Cartesian Forces:  Max     0.003580737 RMS     0.000803877

 GradGradGradGradGradGradGradGradGradGradGradGradGradGradGradGradGradGrad
 Berny optimization.
 Internal  Forces:  Max     0.003643016 RMS     0.000488488
 Search for a local minimum.
 Step number   1 out of a maximum of  155 on scan point     1 out of    37
 All quantities printed in internal units (Hartrees-Bohrs-Radians)
 Mixed Optimization -- En-DIIS/RFO-DIIS
 Second derivative matrix not updated -- first step.
 ITU=  0
     Eigenvalues ---    0.00339   0.00474   0.00728   0.00805   0.00939
     Eigenvalues ---    0.00969   0.01053   0.01254   0.01281   0.01527
     Eigenvalues ---    0.01534   0.01884   0.02020   0.02729   0.04078
     Eigenvalues ---    0.05333   0.05417   0.05810   0.06330   0.06932
     Eigenvalues ---    0.07268   0.07458   0.07466   0.07480   0.07642
     Eigenvalues ---    0.09537   0.10034   0.10276   0.10509   0.11131
     Eigenvalues ---    0.11134   0.12929   0.13610   0.16000   0.16000
     Eigenvalues ---    0.16000   0.16000   0.16000   0.16000   0.16000
     Eigenvalues ---    0.16000   0.16000   0.16000   0.16000   0.16000
     Eigenvalues ---    0.21912   0.21972   0.21977   0.22468   0.23537
     Eigenvalues ---    0.24719   0.24854   0.24974   0.25000   0.25000
     Eigenvalues ---    0.25000   0.25000   0.29086   0.29215   0.30170
     Eigenvalues ---    0.33216   0.33280   0.33518   0.33527   0.33708
     Eigenvalues ---    0.33879   0.33919   0.33979   0.34081   0.34312
     Eigenvalues ---    0.34330   0.34499   0.34537   0.34765   0.34880
     Eigenvalues ---    0.35006   0.35037   0.35116   0.36095   0.36878
     Eigenvalues ---    0.37353   0.37648   0.43612   0.43701   0.48113
     Eigenvalues ---    0.49997   0.91895   0.919941000.000001000.00000
     Eigenvalues --- 1000.000001000.000001000.000001000.000001000.00000
     Eigenvalues --- 1000.000001000.000001000.000001000.000001000.00000
     Eigenvalues --- 1000.000001000.000001000.000001000.000001000.00000
     Eigenvalues --- 1000.000001000.000001000.000001000.000001000.00000
     Eigenvalues --- 1000.000001000.000001000.000001000.000001000.00000
     Eigenvalues --- 1000.000001000.000001000.000001000.000001000.00000
     Eigenvalues --- 1000.000001000.000001000.000001000.000001000.00000
     Eigenvalues --- 1000.000001000.000001000.000001000.000001000.00000
     Eigenvalues --- 1000.000001000.000001000.000001000.000001000.00000
     Eigenvalues --- 1000.000001000.000001000.000001000.000001000.00000
     Eigenvalues --- 1000.000001000.000001000.000001000.000001000.00000
 RFO step:  Lambda= 0.00000000D+00 EMin= 3.39070273D-03
 Linear search not attempted -- first point.
 Iteration  1 RMS(Cart)=  0.00004948 RMS(Int)=  0.00000000
 Iteration  2 RMS(Cart)=  0.00000000 RMS(Int)=  0.00000000
 Iteration  1 RMS(Cart)=  0.00000000 RMS(Int)=  0.00000000
 Variable       Old X    -DE/DX   Delta X   Delta X   Delta X     New X
                                 (Linear)    (Quad)   (Total)
    R1        2.87625   0.00000   0.00000   0.00000   0.00000   2.87625
    R2        2.05870   0.00000   0.00000   0.00000   0.00000   2.05870
    R3        2.06776   0.00000   0.00000   0.00000   0.00000   2.06777
    R4        2.06807   0.00000   0.00000   0.00000   0.00000   2.06807
    R5        2.32072   0.00000   0.00000   0.00000   0.00000   2.32072
    R6        2.61818   0.00000   0.00000   0.00001   0.00001   2.61819
    R7        2.76031   0.00000   0.00000   0.00001   0.00001   2.76032
    R8        2.77234   0.00000   0.00000   0.00000   0.00000   2.77233
    R9        2.89823   0.00000   0.00000   0.00000   0.00000   2.89823
   R10        2.06495   0.00000   0.00000   0.00000   0.00000   2.06495
   R11        2.07826   0.00000   0.00000  -0.00001  -0.00001   2.07825
   R12        2.32027   0.00000   0.00000   0.00000   0.00000   2.32027
   R13        2.59868   0.00000   0.00000   0.00000   0.00000   2.59868
   R14        2.74881   0.00000   0.00000   0.00000   0.00000   2.74881
   R15        2.75318   0.00000   0.00000  -0.00001  -0.00001   2.75317
   R16        2.05487   0.00000   0.00000  -0.00001  -0.00001   2.05486
   R17        2.07366   0.00000   0.00000   0.00000   0.00000   2.07366
   R18        2.07535   0.00000   0.00000   0.00000   0.00000   2.07535
   R19        2.07193   0.00000   0.00000   0.00000   0.00000   2.07193
   R20        2.05615   0.00000   0.00000   0.00000   0.00000   2.05615
   R21        2.07467   0.00000   0.00000   0.00000   0.00000   2.07467
   R22        2.06058   0.00000   0.00000   0.00000   0.00000   2.06058
   R23        2.05664   0.00000   0.00000   0.00000   0.00000   2.05664
   R24        2.89557   0.00000   0.00000   0.00000   0.00000   2.89558
   R25        2.08673   0.00000   0.00000  -0.00001  -0.00001   2.08673
   R26        2.08562   0.00000   0.00000   0.00000   0.00000   2.08563
   R27        2.66922   0.00000   0.00000   0.00001   0.00001   2.66922
   R28        2.66814   0.00000   0.00000   0.00000   0.00000   2.66814
   R29        2.06433   0.00000   0.00000   0.00000   0.00000   2.06433
   R30        2.08136   0.00000   0.00000   0.00000   0.00000   2.08136
   R31        2.08151   0.00000   0.00000   0.00000   0.00000   2.08152
    A1        1.86894   0.00000   0.00000   0.00000   0.00000   1.86894
    A2        1.96112   0.00000   0.00000   0.00000   0.00000   1.96112
    A3        1.94569   0.00000   0.00000   0.00001   0.00001   1.94570
    A4        1.90072   0.00000   0.00000  -0.00001  -0.00001   1.90071
    A5        1.90664   0.00000   0.00000   0.00000   0.00000   1.90664
    A6        1.88001   0.00000   0.00000   0.00000   0.00000   1.88001
    A7        2.10363   0.00000   0.00000  -0.00001  -0.00001   2.10362
    A8        2.05473   0.00000   0.00000   0.00000   0.00000   2.05473
    A9        2.12369   0.00000   0.00000   0.00001   0.00001   2.12370
   A10        2.00309  -0.00025   0.00000   0.00002   0.00002   2.00311
   A11        2.11996   0.00086   0.00000  -0.00001  -0.00001   2.11995
   A12        2.07922  -0.00017   0.00000  -0.00002  -0.00002   2.07920
   A13        1.99779   0.00006   0.00000  -0.00001  -0.00001   1.99778
   A14        1.85382  -0.00016   0.00000  -0.00001  -0.00001   1.85381
   A15        1.92649   0.00010   0.00000  -0.00001  -0.00001   1.92649
   A16        1.92363  -0.00161   0.00000   0.00001   0.00001   1.92364
   A17        1.90667   0.00152   0.00000   0.00002   0.00002   1.90668
   A18        1.84923   0.00000   0.00000  -0.00001  -0.00001   1.84923
   A19        2.13455   0.00000   0.00000   0.00001   0.00001   2.13456
   A20        2.02432   0.00000   0.00000   0.00000   0.00000   2.02432
   A21        2.12432   0.00000   0.00000  -0.00001  -0.00001   2.12430
   A22        2.19697   0.00001   0.00000   0.00003   0.00003   2.19700
   A23        2.07045   0.00000   0.00000   0.00000   0.00000   2.07045
   A24        2.00717  -0.00001   0.00000  -0.00003  -0.00003   2.00714
   A25        1.95370   0.00000   0.00000   0.00000   0.00000   1.95371
   A26        1.92556   0.00000   0.00000   0.00000   0.00000   1.92555
   A27        1.92869   0.00000   0.00000   0.00001   0.00001   1.92870
   A28        1.88843   0.00000   0.00000   0.00000   0.00000   1.88843
   A29        1.88380   0.00000   0.00000   0.00000   0.00000   1.88380
   A30        1.88146   0.00000   0.00000  -0.00001  -0.00001   1.88145
   A31        1.92028   0.00000   0.00000   0.00000   0.00000   1.92027
   A32        1.89577   0.00000   0.00000  -0.00001  -0.00001   1.89575
   A33        1.93492   0.00000   0.00000   0.00001   0.00001   1.93493
   A34        1.91756   0.00000   0.00000   0.00000   0.00000   1.91756
   A35        1.89020   0.00000   0.00000   0.00000   0.00000   1.89020
   A36        1.90512   0.00000   0.00000   0.00000   0.00000   1.90513
   A37        1.90672   0.00000   0.00000   0.00001   0.00001   1.90673
   A38        1.88988   0.00000   0.00000  -0.00001  -0.00001   1.88988
   A39        1.97756   0.00000   0.00000   0.00001   0.00001   1.97758
   A40        1.86821   0.00000   0.00000  -0.00002  -0.00002   1.86819
   A41        1.89947   0.00000   0.00000   0.00002   0.00002   1.89949
   A42        1.91887   0.00000   0.00000  -0.00003  -0.00003   1.91885
   A43        1.93359   0.00000   0.00000   0.00001   0.00001   1.93360
   A44        1.92969   0.00000   0.00000  -0.00001  -0.00001   1.92968
   A45        1.87027   0.00000   0.00000  -0.00001  -0.00001   1.87026
   A46        1.86577   0.00000   0.00000   0.00001   0.00001   1.86579
   A47        1.93463   0.00000   0.00000   0.00000   0.00000   1.93463
   A48        1.93078   0.00000   0.00000   0.00000   0.00000   1.93078
   A49        1.97385   0.00000   0.00000   0.00001   0.00001   1.97386
   A50        1.87237   0.00000   0.00000   0.00000   0.00000   1.87238
   A51        1.95144   0.00000   0.00000   0.00000   0.00000   1.95144
   A52        1.95205   0.00000   0.00000   0.00000   0.00000   1.95205
   A53        1.89946   0.00000   0.00000   0.00000   0.00000   1.89946
   A54        1.89955   0.00000   0.00000   0.00000   0.00000   1.89954
   A55        1.88786   0.00000   0.00000   0.00000   0.00000   1.88786
    D1        0.02989   0.00000   0.00000  -0.00003  -0.00003   0.02986
    D2       -3.06147   0.00000   0.00000  -0.00001  -0.00001  -3.06148
    D3       -2.05635   0.00000   0.00000  -0.00002  -0.00002  -2.05637
    D4        1.13547   0.00000   0.00000   0.00000   0.00000   1.13547
    D5        2.11442   0.00000   0.00000  -0.00003  -0.00003   2.11439
    D6       -0.97694   0.00000   0.00000  -0.00001  -0.00001  -0.97695
    D7       -3.06760  -0.00052   0.00000   0.00000   0.00000  -3.06760
    D8       -0.35134   0.00052   0.00000  -0.00002  -0.00002  -0.35136
    D9        0.12484  -0.00052   0.00000   0.00003   0.00003   0.12486
   D10        2.84110   0.00052   0.00000   0.00000   0.00000   2.84109
   D11       -2.64121   0.00364   0.00000   0.00000   0.00000  -2.64121
   D12       -0.51453   0.00153   0.00000   0.00001   0.00001  -0.51452
   D13        1.48245   0.00149   0.00000  -0.00001  -0.00001   1.48244
   D14        0.91509   0.00237   0.00000   0.00002   0.00002   0.91511
   D15        3.04177   0.00025   0.00000   0.00003   0.00003   3.04179
   D16       -1.24444   0.00022   0.00000   0.00001   0.00001  -1.24443
   D17        0.69950  -0.00053   0.00000   0.00003   0.00003   0.69952
   D18        2.72840  -0.00054   0.00000   0.00001   0.00001   2.72841
   D19       -1.42130  -0.00054   0.00000  -0.00002  -0.00002  -1.42132
   D20       -2.88539   0.00054   0.00000   0.00001   0.00001  -2.88538
   D21       -0.85649   0.00054   0.00000  -0.00001  -0.00001  -0.85649
   D22        1.27700   0.00053   0.00000  -0.00003  -0.00003   1.27696
   D23        0.13248  -0.00091   0.00000  -0.00006  -0.00006   0.13242
   D24       -3.01075  -0.00091   0.00000   0.00000   0.00000  -3.01075
   D25       -1.95556   0.00043   0.00000  -0.00005  -0.00005  -1.95561
   D26        1.18439   0.00044   0.00000   0.00001   0.00001   1.18440
   D27        2.30258   0.00047   0.00000  -0.00006  -0.00006   2.30252
   D28       -0.84064   0.00047   0.00000   0.00000   0.00000  -0.84065
   D29       -0.13856   0.00000   0.00000  -0.00002  -0.00002  -0.13858
   D30       -3.13221   0.00000   0.00000  -0.00002  -0.00002  -3.13222
   D31        3.00141   0.00000   0.00000   0.00003   0.00003   3.00144
   D32        0.00776   0.00000   0.00000   0.00004   0.00004   0.00780
   D33        0.11622   0.00000   0.00000   0.00002   0.00002   0.11624
   D34        2.22019   0.00000   0.00000   0.00002   0.00002   2.22021
   D35       -1.98402   0.00000   0.00000   0.00001   0.00001  -1.98401
   D36        3.11456   0.00000   0.00000   0.00001   0.00001   3.11458
   D37       -1.06466   0.00000   0.00000   0.00001   0.00001  -1.06464
   D38        1.01432   0.00000   0.00000   0.00001   0.00001   1.01433
   D39       -2.26286   0.00000   0.00000   0.00004   0.00004  -2.26282
   D40       -0.16328   0.00000   0.00000   0.00004   0.00004  -0.16325
   D41        1.92991   0.00000   0.00000   0.00004   0.00004   1.92995
   D42        1.01090   0.00000   0.00000   0.00004   0.00004   1.01095
   D43        3.11048   0.00000   0.00000   0.00004   0.00004   3.11052
   D44       -1.07951   0.00000   0.00000   0.00004   0.00004  -1.07947
   D45        0.99868   0.00000   0.00000   0.00004   0.00004   0.99871
   D46       -1.06654   0.00000   0.00000   0.00002   0.00002  -1.06652
   D47        3.11115   0.00000   0.00000   0.00003   0.00003   3.11118
   D48       -1.12619   0.00000   0.00000   0.00000   0.00000  -1.12619
   D49        3.09179   0.00000   0.00000  -0.00002  -0.00002   3.09177
   D50        0.98629   0.00000   0.00000  -0.00001  -0.00001   0.98628
   D51        3.11594   0.00000   0.00000   0.00002   0.00002   3.11596
   D52        1.05073   0.00000   0.00000   0.00000   0.00000   1.05073
   D53       -1.05477   0.00000   0.00000   0.00001   0.00001  -1.05476
   D54        3.11449   0.00000   0.00000   0.00001   0.00001   3.11451
   D55       -1.05688   0.00000   0.00000   0.00002   0.00002  -1.05687
   D56        1.00969   0.00000   0.00000   0.00003   0.00003   1.00972
   D57        3.14111   0.00000   0.00000  -0.00005  -0.00005   3.14106
   D58       -1.06083   0.00000   0.00000  -0.00004  -0.00004  -1.06087
   D59        1.05940   0.00000   0.00000  -0.00005  -0.00005   1.05936
         Item               Value     Threshold  Converged?
 Maximum Force            0.000008     0.000450     YES
 RMS     Force            0.000002     0.000300     YES
 Maximum Displacement     0.000179     0.001800     YES
 RMS     Displacement     0.000049     0.001200     YES
 Predicted change in Energy=-1.059524D-09
 Optimization completed.
    -- Stationary point found.
                           ----------------------------
                           !   Optimized Parameters   !
                           ! (Angstroms and Degrees)  !
 --------------------------                            --------------------------
 ! Name  Definition              Value          Derivative Info.                !
 --------------------------------------------------------------------------------
 ! R1    R(1,2)                  1.522          -DE/DX =    0.0                 !
 ! R2    R(1,11)                 1.0894         -DE/DX =    0.0                 !
 ! R3    R(1,12)                 1.0942         -DE/DX =    0.0                 !
 ! R4    R(1,13)                 1.0944         -DE/DX =    0.0                 !
 ! R5    R(2,3)                  1.2281         -DE/DX =    0.0                 !
 ! R6    R(2,4)                  1.3855         -DE/DX =    0.0                 !
 ! R7    R(4,5)                  1.4607         -DE/DX =    0.0                 !
 ! R8    R(4,22)                 1.4671         -DE/DX =    0.0                 !
 ! R9    R(5,6)                  1.5337         -DE/DX =    0.0                 !
 ! R10   R(5,14)                 1.0927         -DE/DX =    0.0                 !
 ! R11   R(5,15)                 1.0998         -DE/DX =    0.0                 !
 ! R12   R(6,7)                  1.2278         -DE/DX =    0.0                 !
 ! R13   R(6,8)                  1.3752         -DE/DX =    0.0                 !
 ! R14   R(8,9)                  1.4546         -DE/DX =    0.0                 !
 ! R15   R(8,10)                 1.4569         -DE/DX =    0.0                 !
 ! R16   R(9,16)                 1.0874         -DE/DX =    0.0                 !
 ! R17   R(9,17)                 1.0973         -DE/DX =    0.0                 !
 ! R18   R(9,18)                 1.0982         -DE/DX =    0.0                 !
 ! R19   R(10,19)                1.0964         -DE/DX =    0.0                 !
 ! R20   R(10,20)                1.0881         -DE/DX =    0.0                 !
 ! R21   R(10,21)                1.0979         -DE/DX =    0.0                 !
 ! R22   R(22,23)                1.0904         -DE/DX =    0.0                 !
 ! R23   R(22,24)                1.0883         -DE/DX =    0.0                 !
 ! R24   R(22,25)                1.5323         -DE/DX =    0.0                 !
 ! R25   R(25,26)                1.1043         -DE/DX =    0.0                 !
 ! R26   R(25,27)                1.1037         -DE/DX =    0.0                 !
 ! R27   R(25,28)                1.4125         -DE/DX =    0.0                 !
 ! R28   R(28,29)                1.4119         -DE/DX =    0.0                 !
 ! R29   R(29,30)                1.0924         -DE/DX =    0.0                 !
 ! R30   R(29,31)                1.1014         -DE/DX =    0.0                 !
 ! R31   R(29,32)                1.1015         -DE/DX =    0.0                 !
 ! A1    A(2,1,11)             107.0821         -DE/DX =    0.0                 !
 ! A2    A(2,1,12)             112.364          -DE/DX =    0.0                 !
 ! A3    A(2,1,13)             111.4801         -DE/DX =    0.0                 !
 ! A4    A(11,1,12)            108.9033         -DE/DX =    0.0                 !
 ! A5    A(11,1,13)            109.2425         -DE/DX =    0.0                 !
 ! A6    A(12,1,13)            107.7164         -DE/DX =    0.0                 !
 ! A7    A(1,2,3)              120.5291         -DE/DX =    0.0                 !
 ! A8    A(1,2,4)              117.7275         -DE/DX =    0.0                 !
 ! A9    A(3,2,4)              121.6786         -DE/DX =    0.0                 !
 ! A10   A(2,4,5)              114.7689         -DE/DX =   -0.0002              !
 ! A11   A(2,4,22)             121.4649         -DE/DX =    0.0009              !
 ! A12   A(5,4,22)             119.1304         -DE/DX =   -0.0002              !
 ! A13   A(4,5,6)              114.4649         -DE/DX =    0.0001              !
 ! A14   A(4,5,14)             106.2159         -DE/DX =   -0.0002              !
 ! A15   A(4,5,15)             110.38           -DE/DX =    0.0001              !
 ! A16   A(6,5,14)             110.2156         -DE/DX =   -0.0016              !
[...]
   D20       -2.80723   0.00071   0.00000   0.05908   0.05906  -2.74817
   D21       -0.78114   0.00047   0.00000   0.05484   0.05481  -0.72633
   D22        1.35827   0.00120   0.00000   0.06246   0.06245   1.42072
   D23        1.07171  -0.00578   0.00000   0.03648   0.03646   1.10817
   D24       -1.96355  -0.01011   0.00000   0.00000   0.00000  -1.96355
   D25       -1.05113   0.00402   0.00000   0.11641   0.11645  -0.93468
   D26        2.19679  -0.00031   0.00000   0.07993   0.07999   2.27679
   D27       -3.09321   0.00402   0.00000   0.11333   0.11309  -2.98011
   D28        0.15471  -0.00032   0.00000   0.07684   0.07664   0.23135
   D29       -0.14938   0.00068   0.00000  -0.05437  -0.05426  -0.20364
   D30       -3.09236   0.00115   0.00000  -0.01200  -0.01189  -3.10425
   D31        3.10139  -0.00353   0.00000  -0.09112  -0.09123   3.01016
   D32        0.15841  -0.00306   0.00000  -0.04875  -0.04886   0.10955
   D33        0.48425  -0.00006   0.00000  -0.00594  -0.00595   0.47831
   D34        2.55681   0.00015   0.00000  -0.00212  -0.00213   2.55469
   D35       -1.64905   0.00005   0.00000  -0.00308  -0.00309  -1.65214
   D36       -2.85030  -0.00045   0.00000  -0.04698  -0.04697  -2.89727
   D37       -0.77774  -0.00024   0.00000  -0.04316  -0.04315  -0.82089
   D38        1.29958  -0.00034   0.00000  -0.04412  -0.04411   1.25547
   D39       -2.25311  -0.00015   0.00000  -0.02911  -0.02910  -2.28220
   D40       -0.15623  -0.00030   0.00000  -0.02878  -0.02877  -0.18500
   D41        1.93981  -0.00015   0.00000  -0.02896  -0.02895   1.91086
   D42        1.06287   0.00025   0.00000   0.00797   0.00796   1.07082
   D43       -3.12345   0.00010   0.00000   0.00830   0.00829  -3.11516
   D44       -1.02740   0.00026   0.00000   0.00811   0.00810  -1.01930
   D45        1.00864  -0.00025   0.00000  -0.00116  -0.00117   1.00747
   D46       -1.05271  -0.00041   0.00000  -0.00182  -0.00183  -1.05454
   D47        3.12214  -0.00034   0.00000  -0.00199  -0.00200   3.12014
   D48       -1.11751   0.00006   0.00000   0.00016   0.00016  -1.11735
   D49        3.10433  -0.00011   0.00000  -0.00050  -0.00050   3.10383
   D50        0.99599  -0.00004   0.00000  -0.00067  -0.00067   0.99533
   D51       -3.13963   0.00040   0.00000   0.00742   0.00742  -3.13221
   D52        1.08220   0.00024   0.00000   0.00676   0.00676   1.08896
   D53       -1.02613   0.00031   0.00000   0.00659   0.00659  -1.01954
   D54        3.13968   0.00026   0.00000   0.00014   0.00014   3.13982
   D55       -1.03914  -0.00009   0.00000  -0.00189  -0.00189  -1.04104
   D56        1.03333  -0.00014   0.00000  -0.00185  -0.00185   1.03148
   D57        3.13860   0.00003   0.00000   0.00358   0.00358  -3.14100
   D58       -1.06328   0.00002   0.00000   0.00330   0.00330  -1.05999
   D59        1.05644   0.00003   0.00000   0.00372   0.00372   1.06016
         Item               Value     Threshold  Converged?
 Maximum Force            0.005889     0.000450     NO 
 RMS     Force            0.001245     0.000300     NO 
 Maximum Displacement     0.284403     0.001800     NO 
 RMS     Displacement     0.073876     0.001200     NO 
 Predicted change in Energy=-1.674828D-03
 GradGradGradGradGradGradGradGradGradGradGradGradGradGradGradGradGradGrad

                          Input orientation:                          
 ---------------------------------------------------------------------
 Center     Atomic      Atomic             Coordinates (Angstroms)
 Number     Number       Type             X           Y           Z
 ---------------------------------------------------------------------
      1          6           0        2.680478    2.362527    0.619473
      2          6           0        1.229082    2.416305    0.161794
      3          8           0        0.742889    3.457843   -0.267750
      4          7           0        0.474752    1.265335    0.265227
      5          6           0       -0.925241    1.391302   -0.165835
      6          6           0       -1.839212    0.413081    0.578622
      7          8           0       -1.961106    0.534841    1.794475
      8          7           0       -2.432908   -0.622352   -0.109121
      9          6           0       -2.489669   -0.788225   -1.555288
     10          6           0       -3.333671   -1.501115    0.632185
     11          1           0        3.110829    3.345566    0.432202
     12          1           0        3.264154    1.608440    0.082789
     13          1           0        2.751976    2.142115    1.689729
     14          1           0       -1.253164    2.399082    0.096206
     15          1           0       -0.993528    1.320032   -1.254927
     16          1           0       -1.651002   -0.307630   -2.053865
     17          1           0       -2.448773   -1.856821   -1.790656
     18          1           0       -3.422608   -0.387126   -1.975864
     19          1           0       -3.072480   -2.548395    0.443115
     20          1           0       -3.235018   -1.281043    1.692820
     21          1           0       -4.375297   -1.343270    0.323192
     22          6           0        1.027175   -0.028271    0.652283
     23          1           0        1.894165    0.126042    1.295172
     24          1           0        0.294930   -0.569570    1.255503
     25          6           0        1.457688   -0.891253   -0.537175
     26          1           0        2.205189   -0.353955   -1.146076
     27          1           0        0.598453   -1.103857   -1.194347
     28          8           0        1.993501   -2.088401   -0.014811
     29          6           0        2.430605   -2.982760   -1.016692
     30          1           0        2.823078   -3.868167   -0.511688
     31          1           0        1.606205   -3.287898   -1.680432
     32          1           0        3.227396   -2.544527   -1.637800
 ---------------------------------------------------------------------
                    Distance matrix (angstroms):
                    1          2          3          4          5
     1  C    0.000000
     2  C    1.522797   0.000000
     3  O    2.396066   1.227066   0.000000
     4  N    2.488885   1.380017   2.272236   0.000000
     5  C    3.815913   2.408129   2.657751   1.470260   0.000000
     6  C    4.922357   3.687964   4.080951   2.485756   1.531820
     7  O    5.124975   4.047574   4.484229   2.967428   2.376837
     8  N    5.965490   4.766236   5.172895   3.486830   2.516163
     9  C    6.433292   5.200625   5.489652   4.039700   3.021316
    10  C    7.148278   6.032095   6.482244   4.721439   3.847524
    11  H    1.089330   2.116038   2.471776   3.362164   4.524009
    12  H    1.094237   2.190983   3.146417   2.816340   4.202380
    13  H    1.095053   2.174620   3.098273   2.825544   4.186736
    14  H    3.968461   2.483173   2.288595   2.073559   1.091705
    15  H    4.254232   2.854629   2.925730   2.114168   1.093556
    16  H    5.747886   4.541350   4.806216   3.517277   2.641544
    17  H    7.065468   5.966431   6.383698   4.745683   3.938464
    18  H    7.179417   5.836697   5.920541   4.789836   3.560316
    19  H    7.566028   6.575016   7.151032   5.211433   4.527987
    20  H    7.029990   5.995216   6.490348   4.720641   3.991377
    21  H    7.975254   6.750520   7.042424   5.507373   4.429437
    22  C    2.906957   2.501459   3.616665   1.458903   2.548810
    23  H    2.465101   2.640490   3.856042   2.091293   3.418256
    24  H    3.833088   3.314256   4.329090   2.092811   2.711833
    25  C    3.663350   3.388328   4.415672   2.502176   3.320587
    26  H    3.274498   3.215221   4.176072   2.758312   3.715694
    27  H    4.431770   3.824703   4.657096   2.785449   3.099241
    28  O    4.548078   4.572516   5.691118   3.692229   4.544248
    29  C    5.595674   5.655298   6.700050   4.849226   5.578358
    30  H    6.334146   6.518358   7.619521   5.698339   6.467729
    31  H    6.194427   6.006160   6.945934   5.079144   5.531468
    32  H    5.428957   5.642841   6.639145   5.070858   5.907776
                    6          7          8          9         10
     6  C    0.000000
     7  O    1.227999   0.000000
     8  N    1.377530   2.277141   0.000000
     9  C    2.533733   3.640164   1.456755   0.000000
    10  C    2.429079   2.716610   1.460524   2.450630   0.000000
    11  H    5.755329   5.956550   6.838891   7.239056   8.066095
    12  H    5.264891   5.602306   6.121257   6.444671   7.314538
    13  H    5.030220   4.980707   6.145011   6.825824   7.171235
    14  H    2.126117   2.619293   3.250080   3.796748   4.452787
    15  H    2.213514   3.294175   2.675359   2.602576   4.122661
    16  H    2.735843   3.951663   2.119542   1.087618   3.386834
    17  H    3.337290   4.337168   2.086079   1.094975   2.603791
    18  H    3.110125   4.147465   2.125928   1.099154   2.837393
    19  H    3.210865   3.545090   2.103249   2.726075   1.095794
    20  H    2.461660   2.220500   2.079482   3.368771   1.087709
    21  H    3.095439   3.394156   2.116481   2.718889   1.097896
    22  C    2.901102   3.248311   3.592331   4.221267   4.602896
    23  H    3.812340   3.908905   4.610390   5.308391   5.515203
    24  H    2.445063   2.569030   3.050588   3.962620   3.797769
    25  C    3.716967   4.377041   3.923299   4.077842   4.969553
    26  H    4.463194   5.176370   4.760174   4.732625   5.929347
    27  H    3.374423   4.262597   3.255566   3.125124   4.353807
    28  O    4.615112   5.078762   4.663828   4.915521   5.398358
    29  C    5.684022   6.289937   5.481695   5.414349   6.175836
    30  H    6.422990   6.898788   6.190538   6.228999   6.694545
    31  H    5.538183   6.278059   5.088083   4.800023   5.739614
    32  H    6.271402   6.941438   6.170142   5.981324   7.020622
                   11         12         13         14         15
    11  H    0.000000
    12  H    1.778540   0.000000
    13  H    1.777202   1.769009   0.000000
    14  H    4.478076   4.586007   4.318159   0.000000
    15  H    4.878005   4.472194   4.834834   1.748519   0.000000
    16  H    6.496261   5.691694   6.277098   3.479564   1.928694
    17  H    7.931904   6.939407   7.426463   4.806499   3.535130
    18  H    7.900479   7.275516   7.613089   4.094254   3.055253
    19  H    8.542377   7.586966   7.581505   5.282781   4.708516
    20  H    7.953895   7.292500   6.896529   4.474398   4.525382
    21  H    8.833977   8.193388   8.050674   4.878979   4.584758
    22  C    3.971501   2.829703   2.960035   3.376568   3.088464
    23  H    3.548284   2.354623   2.226222   4.063239   4.033285
    24  H    4.892382   3.864619   3.684950   3.543086   3.396024
    25  C    4.650076   3.145814   3.979398   4.310011   3.378374
    26  H    4.122815   2.546078   3.817215   4.591588   3.611907
    27  H    5.362375   4.011683   4.846843   4.167084   2.900571
    28  O    5.565630   3.910335   4.623635   5.539915   4.698685
    29  C    6.527612   4.794036   5.804510   6.616111   5.504132
    30  H    7.280911   5.526407   6.401154   7.500912   6.483540
    31  H    7.122497   5.461856   6.492751   6.608644   5.307795
    32  H    6.244332   4.495432   5.767416   6.893581   5.735643
                   16         17         18         19         20
    16  H    0.000000
    17  H    1.762303   0.000000
    18  H    1.775104   1.772756   0.000000
    19  H    3.643698   2.420127   3.262689   0.000000
    20  H    4.182617   3.617223   3.780677   1.787277   0.000000
    21  H    3.760948   2.905784   2.665987   1.778775   1.783252
    22  C    3.817579   4.625339   5.180396   4.816841   4.562724
    23  H    4.896155   5.684646   6.263474   5.704926   5.333529
    24  H    3.848010   4.296977   4.929008   3.989383   3.627393
    25  C    3.507837   4.214733   5.112853   4.922348   5.210211
    26  H    3.961873   4.932895   5.688739   5.932527   6.206019
    27  H    2.536296   3.195016   4.158534   4.271267   4.802357
    28  O    4.539965   4.789682   6.006189   5.107392   5.559248
    29  C    4.989145   5.067060   6.474368   5.709962   6.506657
    30  H    5.922257   5.785645   7.298634   6.116458   6.946481
    31  H    4.430671   4.301509   5.812979   5.190994   6.232475
    32  H    5.382897   5.719720   6.999373   6.634656   7.379174
                   21         22         23         24         25
    21  H    0.000000
    22  C    5.569940   0.000000
    23  H    6.512279   1.090317   0.000000
    24  H    4.824815   1.092274   1.744420   0.000000
    25  C    5.913397   1.531303   2.140771   2.160829   0.000000
    26  H    6.814711   2.174368   2.507354   3.076225   1.103724
    27  H    5.205616   2.179617   3.064185   2.525739   1.102434
    28  O    6.421141   2.371273   2.574817   2.608771   1.411779
    29  C    7.127659   3.672070   3.911156   3.943028   2.356036
    30  H    7.673899   4.396009   4.481220   4.516108   3.275203
    31  H    6.601096   4.049939   4.537855   4.210519   2.659511
    32  H    7.942887   4.051789   4.184707   4.568480   2.660179
                   26         27         28         29         30
    26  H    0.000000
    27  H    1.773776   0.000000
    28  O    2.081555   2.075281   0.000000
    29  C    2.641623   2.630327   1.412340   0.000000
    30  H    3.624075   3.613363   2.025500   1.092249   0.000000
    31  H    3.041766   2.453952   2.088800   1.101497   1.784224
    32  H    2.466841   3.030432   2.089172   1.101226   1.784271
                   31         32
    31  H    0.000000
    32  H    1.784006   0.000000
 Stoichiometry    C9H18N2O3
 Framework group  C1[X(C9H18N2O3)]
 Deg. of freedom    90
 Full point group                 C1      NOp   1
 Largest Abelian subgroup         C1      NOp   1
 Largest concise Abelian subgroup C1      NOp   1
                         Standard orientation:                         
 ---------------------------------------------------------------------
 Center     Atomic      Atomic             Coordinates (Angstroms)
 Number     Number       Type             X           Y           Z
 ---------------------------------------------------------------------
      1          6           0       -3.363259    1.155437   -0.362606
      2          6           0       -2.038200    1.641737    0.208921
      3          8           0       -1.977962    2.676776    0.865242
      4          7           0       -0.907621    0.894683   -0.052129
      5          6           0        0.342778    1.433142    0.503053
      6          6           0        1.557525    1.033058   -0.340035
      7          8           0        1.626533    1.438048   -1.497273
      8          7           0        2.494866    0.169451    0.182616
      9          6           0        2.607734   -0.257473    1.570828
     10          6           0        3.660119   -0.145855   -0.639515
     11          1           0       -4.130656    1.851507   -0.026113
     12          1           0       -3.622783    0.147022   -0.026301
     13          1           0       -3.345629    1.149145   -1.457499
     14          1           0        0.269801    2.521696    0.463767
     15          1           0        0.431370    1.169672    1.560691
     16          1           0        1.649475   -0.230905    2.084585
     17          1           0        2.969662   -1.290623    1.594875
     18          1           0        3.322048    0.361789    2.131551
     19          1           0        3.809858   -1.230823   -0.673937
     20          1           0        3.487611    0.235693   -1.643394
     21          1           0        4.566447    0.315375   -0.225737
     22          6           0       -0.934935   -0.402107   -0.719951
     23          1           0       -1.795793   -0.447469   -1.387527
     24          1           0       -0.052487   -0.501240   -1.355971
     25          6           0       -1.012509   -1.587398    0.246464
     26          1           0       -1.907612   -1.498651    0.886091
     27          1           0       -0.137032   -1.600713    0.916333
     28          8           0       -1.060366   -2.762760   -0.534148
     29          6           0       -1.132059   -3.940395    0.242216
     30          1           0       -1.163764   -4.783908   -0.450957
     31          1           0       -0.254241   -4.051797    0.898203
     32          1           0       -2.035785   -3.962114    0.871110
 ---------------------------------------------------------------------
 Rotational constants (GHZ):      0.6388828      0.5201521      0.3354539
 Standard basis: 6-31G(d,p) (6D, 7F)
 There are   300 symmetry adapted basis functions of A   symmetry.
 Integral buffers will be    131072 words long.
 Raffenetti 2 integral format.
 Two-electron integral symmetry is turned on.
   300 basis functions,   518 primitive gaussians,   300 cartesian basis functions
    55 alpha electrons       55 beta electrons
       nuclear repulsion energy       974.2255579805 Hartrees.
 NAtoms=   32 NActive=   32 NUniq=   32 SFac= 1.00D+00 NAtFMM=   60 NAOKFM=F Big=F
 One-electron integrals computed using PRISM.
 NBasis=   300 RedAO= T  NBF=   300
 NBsUse=   300 1.00D-06 NBFU=   300
 Initial guess read from the read-write file.
 B after Tr=     0.000000    0.000000    0.000000
         Rot=    1.000000    0.000000    0.000000    0.000000 Ang=   0.00 deg.
 Initial guess orbital symmetries:
       Occupied  (A) (A) (A) (A) (A) (A) (A) (A) (A) (A) (A) (A)
                 (A) (A) (A) (A) (A) (A) (A) (A) (A) (A) (A) (A)
                 (A) (A) (A) (A) (A) (A) (A) (A) (A) (A) (A) (A)
                 (A) (A) (A) (A) (A) (A) (A) (A) (A) (A) (A) (A)
                 (A) (A) (A) (A) (A) (A) (A)
       Virtual   (A) (A) (A) (A) (A) (A) (A) (A) (A) (A) (A) (A)
                 (A) (A) (A) (A) (A) (A) (A) (A) (A) (A) (A) (A)
                 (A) (A) (A) (A) (A) (A) (A) (A) (A) (A) (A) (A)
                 (A) (A) (A) (A) (A) (A) (A) (A) (A) (A) (A) (A)
                 (A) (A) (A) (A) (A) (A) (A) (A) (A) (A) (A) (A)
                 (A) (A) (A) (A) (A) (A) (A) (A) (A) (A) (A) (A)
                 (A) (A) (A) (A) (A) (A) (A) (A) (A) (A) (A) (A)
                 (A) (A) (A) (A) (A) (A) (A) (A) (A) (A) (A) (A)
                 (A) (A) (A) (A) (A) (A) (A) (A) (A) (A) (A) (A)
                 (A) (A) (A) (A) (A) (A) (A) (A) (A) (A) (A) (A)
                 (A) (A) (A) (A) (A) (A) (A) (A) (A) (A) (A) (A)
                 (A) (A) (A) (A) (A) (A) (A) (A) (A) (A) (A) (A)
                 (A) (A) (A) (A) (A) (A) (A) (A) (A) (A) (A) (A)
                 (A) (A) (A) (A) (A) (A) (A) (A) (A) (A) (A) (A)
                 (A) (A) (A) (A) (A) (A) (A) (A) (A) (A) (A) (A)
                 (A) (A) (A) (A) (A) (A) (A) (A) (A) (A) (A) (A)
                 (A) (A) (A) (A) (A) (A) (A) (A) (A) (A) (A) (A)
                 (A) (A) (A) (A) (A) (A) (A) (A) (A) (A) (A) (A)
                 (A) (A) (A) (A) (A) (A) (A) (A) (A) (A) (A) (A)
                 (A) (A) (A) (A) (A) (A) (A) (A) (A) (A) (A) (A)
                 (A) (A) (A) (A) (A)
 Harris functional with IExCor=  402 diagonalized for initial guess.
 ExpMin= 1.61D-01 ExpMax= 5.48D+03 ExpMxC= 8.25D+02 IAcc=1 IRadAn=         1 AccDes= 0.00D+00
 HarFok:  IExCor=  402 AccDes= 0.00D+00 IRadAn=         1 IDoV= 1
 ScaDFX=  1.000000  1.000000  1.000000  1.000000
 FoFCou: FMM=F IPFlag=           0 FMFlag=      100000 FMFlg1=           0
         NFxFlg=           0 DoJE=T BraDBF=F KetDBF=T FulRan=T
         Omega=  0.000000  0.000000  1.000000  0.000000  0.000000 ICntrl=     500 IOpCl=  0
         NMat0=    1 NMatS0=    1 NMatT0=    0 NMatD0=    1 NMtDS0=    0 NMtDT0=    0
         I1Cent=           4 NGrid=           0.
 Petite list used in FoFCou.
 Requested convergence on RMS density matrix=1.00D-08 within 128 cycles.
 Requested convergence on MAX density matrix=1.00D-06.
 Requested convergence on             energy=1.00D-06.
 No special actions if energy rises.
 Keep R1 ints in memory in canonical form, NReq=1033484018.
