 Entering Gaussian System, Link 0=/data/opt/apps/g09-C01/g09
 Initial command:
 /data/opt/apps/g09-C01/l1.exe /tmp/g09-tuu61186-1150920c21e64fea8x/Gau-1151053.inp -scrdir=/tmp/g09-tuu61186-1150920c21e64fea8x/
 Entering Link 1 = /data/opt/apps/g09-C01/l1.exe PID=   1151061.
  
 Copyright (c) 1988,1990,1992,1993,1995,1998,2003,2009,2011,
            Gaussian, Inc.  All Rights Reserved.
  
 This is part of the Gaussian(R) 09 program.  It is based on
 the Gaussian(R) 03 system (copyright 2003, Gaussian, Inc.),
 the Gaussian(R) 98 system (copyright 1998, Gaussian, Inc.),
 the Gaussian(R) 94 system (copyright 1995, Gaussian, Inc.),
 the Gaussian 92(TM) system (copyright 1992, Gaussian, Inc.),
 the Gaussian 90(TM) system (copyright 1990, Gaussian, Inc.),
 the Gaussian 88(TM) system (copyright 1988, Gaussian, Inc.),
 the Gaussian 86(TM) system (copyright 1986, Carnegie Mellon
 University), and the Gaussian 82(TM) system (copyright 1983,
 Carnegie Mellon University). Gaussian is a federally registered
 trademark of Gaussian, Inc.
  
 This software contains proprietary and confidential information,
 including trade secrets, belonging to Gaussian, Inc.
  
 This software is provided under written license and may be
 used, copied, transmitted, or stored only in accord with that
 written license.
  
 The following legend is applicable only to US Government
 contracts under FAR:
  
                    RESTRICTED RIGHTS LEGEND
  
 Use, reproduction and disclosure by the US Government is
 subject to restrictions as set forth in subparagraphs (a)
 and (c) of the Commercial Computer Software - Restricted
 Rights clause in FAR 52.227-19.
  
 Gaussian, Inc.
 340 Quinnipiac St., Bldg. 40, Wallingford CT 06492
  
  
 ---------------------------------------------------------------
 Warning -- This program may not be used in any manner that
 competes with the business of Gaussian, Inc. or will provide
 assistance to any competitor of Gaussian, Inc.  The licensee
 of this program is prohibited from giving any competitor of
 Gaussian, Inc. access to this program.  By using this program,
 the user acknowledges that Gaussian, Inc. is engaged in the
 business of creating and licensing software in the field of
 computational chemistry and represents and warrants to the
 licensee that it is not a competitor of Gaussian, Inc. and that
 it will not use this program in any manner prohibited above.
 ---------------------------------------------------------------
  

 Cite this work as:
 Gaussian 09, Revision C.01,
 M. J. Frisch, G. W. Trucks, H. B. Schlegel, G. E. Scuseria, 
 M. A. Robb, J. R. Cheeseman, G. Scalmani, V. Barone, B. Mennucci, 
 G. A. Petersson, H. Nakatsuji, M. Caricato, X. Li, H. P. Hratchian, 
 A. F. Izmaylov, J. Bloino, G. Zheng, J. L. Sonnenberg, M. Hada, 
 M. Ehara, K. Toyota, R. Fukuda, J. Hasegawa, M. Ishida, T. Nakajima, 
 Y. Honda, O. Kitao, H. Nakai, T. Vreven, J. A. Montgomery, Jr., 
 J. E. Peralta, F. Ogliaro, M. Bearpark, J. J. Heyd, E. Brothers, 
 K. N. Kudin, V. N. Staroverov, T. Keith, R. Kobayashi, J. Normand, 
 K. Raghavachari, A. Rendell, J. C. Burant, S. S. Iyengar, J. Tomasi, 
 M. Cossi, N. Rega, J. M. Millam, M. Klene, J. E. Knox, J. B. Cross, 
 V. Bakken, C. Adamo, J. Jaramillo, R. Gomperts, R. E. Stratmann, 
 O. Yazyev, A. J. Austin, R. Cammi, C. Pomelli, J. W. Ochterski, 
 R. L. Martin, K. Morokuma, V. G. Zakrzewski, G. A. Voth, 
 P. Salvador, J. J. Dannenberg, S. Dapprich, A. D. Daniels, 
 O. Farkas, J. B. Foresman, J. V. Ortiz, J. Cioslowski, 
 and D. J. Fox, Gaussian, Inc., Wallingford CT, 2010.
 
 ******************************************
 Gaussian 09:  EM64L-G09RevC.01 23-Sep-2011
                24-Apr-2026 
 ******************************************
 %nprocshared=8
 Will use up to    8 processors via shared memory.
 %mem=14GB
 -----------------------------------
 # opt=modredundant b3lyp/6-31g(d,p)
 -----------------------------------
 1/14=-1,18=120,19=15,26=3,38=1/1,3;
 2/9=110,12=2,17=6,18=5,40=1/2;
 3/5=1,6=6,7=101,11=2,16=1,25=1,30=1,71=1,74=-5/1,2,3;
 4//1;
 5/5=2,38=5/2;
 6/7=2,8=2,9=2,10=2,28=1/1;
 7//1,2,3,16;
 1/14=-1,18=20,19=15/3(2);
 2/9=110/2;
 99//99;
 2/9=110/2;
 3/5=1,6=6,7=101,11=2,16=1,25=1,30=1,71=1,74=-5/1,2,3;
 4/5=5,16=3/1;
 5/5=2,38=5/2;
 7//1,2,3,16;
 1/14=-1,18=20,19=15/3(-5);
 2/9=110/2;
 6/7=2,8=2,9=2,10=2,19=2,28=1/1;
 99/9=1/99;
 ---------------
 QM dihedral opt
 ---------------
 Charge =  0 Multiplicity = 1
 Symbolic Z-Matrix:
 C                     0.62945   2.85448  -0.96278 
 C                    -0.28809   1.9182   -0.18955 
 O                    -1.49124   2.13203  -0.11038 
 N                     0.26263   0.78766   0.38958 
 C                    -0.6279    0.03037   1.28067 
 C                    -1.96955  -0.55714   0.79185 
 O                    -2.85352  -0.61594   1.6416 
 N                    -2.13748  -1.0854   -0.46191 
 C                    -1.16798  -1.10789  -1.54075 
 C                    -3.46419  -1.56566  -0.82843 
 H                    -0.00701   3.5113   -1.55516 
 H                     1.32048   2.3231   -1.62342 
 H                     1.22323   3.47484  -0.28252 
 H                    -0.04766  -0.80929   1.67785 
 H                    -0.93232   0.65079   2.12812 
 H                    -0.17072  -0.88404  -1.17644 
 H                    -1.15717  -2.10379  -2.00073 
 H                    -1.42273  -0.37745  -2.32142 
 H                    -3.41571  -2.61479  -1.14572 
 H                    -4.11629  -1.47616   0.03755 
 H                    -3.86921  -0.97179  -1.6578 
 C                     1.69844   0.64642   0.64957 
 H                     2.22739   1.54406   0.33085 
 H                     1.87115   0.54977   1.72861 
 C                     2.32575  -0.55823  -0.05369 
 H                     2.23355  -0.4485   -1.1481 
 H                     1.80261  -1.4891    0.22543 
 O                     3.6799   -0.60565   0.33932 
 C                     4.3869   -1.68706  -0.23504 
 H                     5.41354  -1.63402   0.13346 
 H                     3.95367  -2.65675   0.05465 
 H                     4.39908  -1.62858  -1.33438 
 
 The following ModRedundant input section has been read:
 D       2       4       5       6 F                                           
 D       4       5       6       8 S  36 10.000                                

 GradGradGradGradGradGradGradGradGradGradGradGradGradGradGradGradGradGrad
 Berny optimization.
 Initialization pass.
                           ----------------------------
                           !    Initial Parameters    !
                           ! (Angstroms and Degrees)  !
 --------------------------                            --------------------------
 ! Name  Definition              Value          Derivative Info.                !
 --------------------------------------------------------------------------------
 ! R1    R(1,2)                  1.522          estimate D2E/DX2                !
 ! R2    R(1,11)                 1.0897         estimate D2E/DX2                !
 ! R3    R(1,12)                 1.0938         estimate D2E/DX2                !
 ! R4    R(1,13)                 1.0955         estimate D2E/DX2                !
 ! R5    R(2,3)                  1.2246         estimate D2E/DX2                !
 ! R6    R(2,4)                  1.3845         estimate D2E/DX2                !
 ! R7    R(4,5)                  1.4699         estimate D2E/DX2                !
 ! R8    R(4,22)                 1.466          estimate D2E/DX2                !
 ! R9    R(5,6)                  1.5441         estimate D2E/DX2                !
 ! R10   R(5,14)                 1.0952         estimate D2E/DX2                !
 ! R11   R(5,15)                 1.0935         estimate D2E/DX2                !
 ! R12   R(6,7)                  1.2276         estimate D2E/DX2                !
 ! R13   R(6,8)                  1.3708         estimate D2E/DX2                !
 ! R14   R(8,9)                  1.4506         estimate D2E/DX2                !
 ! R15   R(8,10)                 1.4578         estimate D2E/DX2                !
 ! R16   R(9,16)                 1.0851         estimate D2E/DX2                !
 ! R17   R(9,17)                 1.0971         estimate D2E/DX2                !
 ! R18   R(9,18)                 1.099          estimate D2E/DX2                !
 ! R19   R(10,19)                1.0971         estimate D2E/DX2                !
 ! R20   R(10,20)                1.0877         estimate D2E/DX2                !
 ! R21   R(10,21)                1.0975         estimate D2E/DX2                !
 ! R22   R(22,23)                1.0896         estimate D2E/DX2                !
 ! R23   R(22,24)                1.097          estimate D2E/DX2                !
 ! R24   R(22,25)                1.5295         estimate D2E/DX2                !
 ! R25   R(25,26)                1.1038         estimate D2E/DX2                !
 ! R26   R(25,27)                1.1037         estimate D2E/DX2                !
 ! R27   R(25,28)                1.4108         estimate D2E/DX2                !
 ! R28   R(28,29)                1.4139         estimate D2E/DX2                !
 ! R29   R(29,30)                1.0921         estimate D2E/DX2                !
 ! R30   R(29,31)                1.1009         estimate D2E/DX2                !
 ! R31   R(29,32)                1.101          estimate D2E/DX2                !
 ! A1    A(2,1,11)             107.1504         estimate D2E/DX2                !
 ! A2    A(2,1,12)             112.8846         estimate D2E/DX2                !
 ! A3    A(2,1,13)             111.0783         estimate D2E/DX2                !
 ! A4    A(11,1,12)            109.4808         estimate D2E/DX2                !
 ! A5    A(11,1,13)            108.2291         estimate D2E/DX2                !
 ! A6    A(12,1,13)            107.9217         estimate D2E/DX2                !
 ! A7    A(1,2,3)              121.1806         estimate D2E/DX2                !
 ! A8    A(1,2,4)              118.3628         estimate D2E/DX2                !
 ! A9    A(3,2,4)              120.4225         estimate D2E/DX2                !
 ! A10   A(2,4,5)              115.6768         estimate D2E/DX2                !
 ! A11   A(2,4,22)             122.8509         estimate D2E/DX2                !
 ! A12   A(5,4,22)             115.8632         estimate D2E/DX2                !
 ! A13   A(4,5,6)              122.0416         estimate D2E/DX2                !
 ! A14   A(4,5,14)             107.0893         estimate D2E/DX2                !
 ! A15   A(4,5,15)             110.2535         estimate D2E/DX2                !
 ! A16   A(6,5,14)             106.4658         estimate D2E/DX2                !
 ! A17   A(6,5,15)             102.6696         estimate D2E/DX2                !
 ! A18   A(14,5,15)            107.5434         estimate D2E/DX2                !
 ! A19   A(5,6,7)              115.1369         estimate D2E/DX2                !
 ! A20   A(5,6,8)              122.8622         estimate D2E/DX2                !
 ! A21   A(7,6,8)              121.7641         estimate D2E/DX2                !
 ! A22   A(6,8,9)              127.1775         estimate D2E/DX2                !
 ! A23   A(6,8,10)             117.93           estimate D2E/DX2                !
 ! A24   A(9,8,10)             114.5919         estimate D2E/DX2                !
 ! A25   A(8,9,16)             111.1832         estimate D2E/DX2                !
 ! A26   A(8,9,17)             109.4194         estimate D2E/DX2                !
 ! A27   A(8,9,18)             111.2877         estimate D2E/DX2                !
 ! A28   A(16,9,17)            108.6027         estimate D2E/DX2                !
 ! A29   A(16,9,18)            108.3254         estimate D2E/DX2                !
 ! A30   A(17,9,18)            107.9267         estimate D2E/DX2                !
 ! A31   A(8,10,19)            110.3356         estimate D2E/DX2                !
 ! A32   A(8,10,20)            108.562          estimate D2E/DX2                !
 ! A33   A(8,10,21)            110.3392         estimate D2E/DX2                !
 ! A34   A(19,10,20)           109.5975         estimate D2E/DX2                !
 ! A35   A(19,10,21)           108.372          estimate D2E/DX2                !
 ! A36   A(20,10,21)           109.6253         estimate D2E/DX2                !
 ! A37   A(4,22,23)            110.1349         estimate D2E/DX2                !
 ! A38   A(4,22,24)            109.7019         estimate D2E/DX2                !
 ! A39   A(4,22,25)            113.3313         estimate D2E/DX2                !
 ! A40   A(23,22,24)           106.4916         estimate D2E/DX2                !
 ! A41   A(23,22,25)           108.377          estimate D2E/DX2                !
 ! A42   A(24,22,25)           108.56           estimate D2E/DX2                !
 ! A43   A(22,25,26)           110.0812         estimate D2E/DX2                !
 ! A44   A(22,25,27)           110.7087         estimate D2E/DX2                !
 ! A45   A(22,25,28)           106.9817         estimate D2E/DX2                !
 ! A46   A(26,25,27)           107.1579         estimate D2E/DX2                !
 ! A47   A(26,25,28)           111.0834         estimate D2E/DX2                !
 ! A48   A(27,25,28)           110.8641         estimate D2E/DX2                !
 ! A49   A(25,28,29)           113.1101         estimate D2E/DX2                !
 ! A50   A(28,29,30)           107.2091         estimate D2E/DX2                !
 ! A51   A(28,29,31)           111.7169         estimate D2E/DX2                !
 ! A52   A(28,29,32)           111.7476         estimate D2E/DX2                !
 ! A53   A(30,29,31)           108.9017         estimate D2E/DX2                !
 ! A54   A(30,29,32)           108.9028         estimate D2E/DX2                !
 ! A55   A(31,29,32)           108.2942         estimate D2E/DX2                !
 ! D1    D(11,1,2,3)           -12.9697         estimate D2E/DX2                !
 ! D2    D(11,1,2,4)           164.9141         estimate D2E/DX2                !
 ! D3    D(12,1,2,3)          -133.5729         estimate D2E/DX2                !
 ! D4    D(12,1,2,4)            44.3108         estimate D2E/DX2                !
 ! D5    D(13,1,2,3)           105.0513         estimate D2E/DX2                !
 ! D6    D(13,1,2,4)           -77.0649         estimate D2E/DX2                !
 ! D7    D(1,2,4,5)            171.4936         estimate D2E/DX2                !
 ! D8    D(1,2,4,22)            19.0452         estimate D2E/DX2                !
 ! D9    D(3,2,4,5)            -10.606          estimate D2E/DX2                !
 ! D10   D(3,2,4,22)          -163.0544         estimate D2E/DX2                !
 ! D11   D(2,4,5,6)             58.6698         Frozen                          !
 ! D12   D(2,4,5,14)          -178.4935         estimate D2E/DX2                !
 ! D13   D(2,4,5,15)           -61.7771         estimate D2E/DX2                !
 ! D14   D(22,4,5,6)          -146.914          estimate D2E/DX2                !
 ! D15   D(22,4,5,14)          -24.0774         estimate D2E/DX2                !
 ! D16   D(22,4,5,15)           92.639          estimate D2E/DX2                !
 ! D17   D(2,4,22,23)            0.4303         estimate D2E/DX2                !
 ! D18   D(2,4,22,24)          117.3309         estimate D2E/DX2                !
 ! D19   D(2,4,22,25)         -121.1591         estimate D2E/DX2                !
 ! D20   D(5,4,22,23)         -151.9711         estimate D2E/DX2                !
 ! D21   D(5,4,22,24)          -35.0705         estimate D2E/DX2                !
 ! D22   D(5,4,22,25)           86.4395         estimate D2E/DX2                !
 ! D23   D(4,5,6,7)           -148.6329         estimate D2E/DX2                !
 ! D24   D(4,5,6,8)             36.8749         Scan                            !
 ! D25   D(14,5,6,7)            88.2408         estimate D2E/DX2                !
 ! D26   D(14,5,6,8)           -86.2514         estimate D2E/DX2                !
 ! D27   D(15,5,6,7)           -24.627          estimate D2E/DX2                !
 ! D28   D(15,5,6,8)           160.8807         estimate D2E/DX2                !
 ! D29   D(5,6,8,9)             -4.4215         estimate D2E/DX2                !
 ! D30   D(5,6,8,10)          -177.7514         estimate D2E/DX2                !
 ! D31   D(7,6,8,9)           -178.5558         estimate D2E/DX2                !
 ! D32   D(7,6,8,10)             8.1144         estimate D2E/DX2                !
 ! D33   D(6,8,9,16)            15.024          estimate D2E/DX2                !
 ! D34   D(6,8,9,17)           134.9829         estimate D2E/DX2                !
 ! D35   D(6,8,9,18)          -105.8325         estimate D2E/DX2                !
 ! D36   D(10,8,9,16)         -171.4563         estimate D2E/DX2                !
 ! D37   D(10,8,9,17)          -51.4974         estimate D2E/DX2                !
 ! D38   D(10,8,9,18)           67.6873         estimate D2E/DX2                !
 ! D39   D(6,8,10,19)         -124.1291         estimate D2E/DX2                !
 ! D40   D(6,8,10,20)           -4.0108         estimate D2E/DX2                !
 ! D41   D(6,8,10,21)          116.1438         estimate D2E/DX2                !
 ! D42   D(9,8,10,19)           61.7126         estimate D2E/DX2                !
 ! D43   D(9,8,10,20)         -178.1691         estimate D2E/DX2                !
 ! D44   D(9,8,10,21)          -58.0146         estimate D2E/DX2                !
 ! D45   D(4,22,25,26)          62.1239         estimate D2E/DX2                !
 ! D46   D(4,22,25,27)         -56.1703         estimate D2E/DX2                !
 ! D47   D(4,22,25,28)        -177.0714         estimate D2E/DX2                !
 ! D48   D(23,22,25,26)        -60.4453         estimate D2E/DX2                !
 ! D49   D(23,22,25,27)       -178.7395         estimate D2E/DX2                !
 ! D50   D(23,22,25,28)         60.3593         estimate D2E/DX2                !
 ! D51   D(24,22,25,26)       -175.7279         estimate D2E/DX2                !
 ! D52   D(24,22,25,27)         65.9779         estimate D2E/DX2                !
 ! D53   D(24,22,25,28)        -54.9233         estimate D2E/DX2                !
 ! D54   D(22,25,28,29)        179.6093         estimate D2E/DX2                !
 ! D55   D(26,25,28,29)        -60.2254         estimate D2E/DX2                !
 ! D56   D(27,25,28,29)         58.8069         estimate D2E/DX2                !
 ! D57   D(25,28,29,30)       -179.7905         estimate D2E/DX2                !
 ! D58   D(25,28,29,31)        -60.5552         estimate D2E/DX2                !
 ! D59   D(25,28,29,32)         60.9551         estimate D2E/DX2                !
 --------------------------------------------------------------------------------
 Trust Radius=3.00D-01 FncErr=1.00D-07 GrdErr=1.00D-06
 Number of optimizations in scan=  37
 Number of steps in this run=    155 maximum allowed number of steps=    192.
 GradGradGradGradGradGradGradGradGradGradGradGradGradGradGradGradGradGrad

                          Input orientation:                          
 ---------------------------------------------------------------------
 Center     Atomic      Atomic             Coordinates (Angstroms)
 Number     Number       Type             X           Y           Z
 ---------------------------------------------------------------------
      1          6           0        0.629445    2.854481   -0.962776
      2          6           0       -0.288085    1.918197   -0.189551
      3          8           0       -1.491239    2.132034   -0.110384
      4          7           0        0.262633    0.787664    0.389578
      5          6           0       -0.627900    0.030372    1.280674
      6          6           0       -1.969545   -0.557135    0.791853
      7          8           0       -2.853518   -0.615942    1.641602
      8          7           0       -2.137483   -1.085403   -0.461914
      9          6           0       -1.167982   -1.107888   -1.540752
     10          6           0       -3.464194   -1.565655   -0.828429
     11          1           0       -0.007009    3.511298   -1.555157
     12          1           0        1.320483    2.323105   -1.623423
     13          1           0        1.223231    3.474836   -0.282516
     14          1           0       -0.047662   -0.809285    1.677847
     15          1           0       -0.932323    0.650789    2.128124
     16          1           0       -0.170720   -0.884036   -1.176437
     17          1           0       -1.157174   -2.103792   -2.000731
     18          1           0       -1.422729   -0.377445   -2.321419
     19          1           0       -3.415710   -2.614787   -1.145717
     20          1           0       -4.116294   -1.476158    0.037552
     21          1           0       -3.869206   -0.971793   -1.657803
     22          6           0        1.698436    0.646422    0.649573
     23          1           0        2.227392    1.544061    0.330853
     24          1           0        1.871149    0.549771    1.728611
     25          6           0        2.325749   -0.558226   -0.053686
     26          1           0        2.233548   -0.448498   -1.148101
     27          1           0        1.802611   -1.489103    0.225427
     28          8           0        3.679896   -0.605653    0.339319
     29          6           0        4.386904   -1.687059   -0.235038
     30          1           0        5.413535   -1.634021    0.133462
     31          1           0        3.953674   -2.656753    0.054646
     32          1           0        4.399080   -1.628575   -1.334379
 ---------------------------------------------------------------------
                    Distance matrix (angstroms):
                    1          2          3          4          5
     1  C    0.000000
     2  C    1.521961   0.000000
     3  O    2.397040   1.224571   0.000000
     4  N    2.497027   1.384480   2.265692   0.000000
     5  C    3.819630   2.416799   2.664091   1.469895   0.000000
     6  C    4.633853   3.149243   2.876532   2.636841   1.544060
     7  O    5.563960   4.044308   3.532228   3.639790   2.345499
     8  N    4.840397   3.537805   3.300470   3.161325   2.561329
     9  C    4.389210   3.428871   3.556338   3.060384   3.089946
    10  C    6.026071   4.757421   4.252181   4.572843   3.878167
    11  H    1.089678   2.117039   2.488509   3.357511   4.532581
    12  H    1.093777   2.192585   3.198683   2.743866   4.181698
    13  H    1.095525   2.171599   3.033331   2.931783   4.211245
    14  H    4.566678   3.314232   3.732699   2.075130   1.095192
    15  H    4.104758   2.719004   2.741786   2.114047   1.093509
    16  H    3.829155   2.973252   3.460768   2.331261   2.661306
    17  H    5.371576   4.495785   4.650509   4.011228   3.949988
    18  H    4.062348   3.332004   3.345273   3.398151   3.711218
    19  H    6.805119   5.589654   5.225688   5.240612   4.544901
    20  H    6.502087   5.121368   4.464510   4.942046   3.997984
    21  H    5.946536   4.830345   4.205113   4.935540   4.488323
    22  C    2.935632   2.503559   3.599806   1.465973   2.487900
    23  H    2.438055   2.595847   3.790596   2.106149   3.368398
    24  H    3.754608   3.195970   4.146217   2.106401   2.591461
    25  C    3.917966   3.603229   4.670130   2.502868   3.294087
    26  H    3.676569   3.588690   4.648660   2.788738   3.783669
    27  H    4.653479   4.019068   4.906613   2.753570   3.054461
    28  O    4.793040   4.732272   5.868373   3.690738   4.455085
    29  C    5.939165   5.903851   7.010961   4.850156   5.513185
    30  H    6.651008   6.725404   7.868833   5.697539   6.370654
    31  H    6.516084   6.243582   7.253054   5.059641   5.451111
    32  H    5.869074   5.988300   7.094801   5.091211   5.904332
                    6          7          8          9         10
     6  C    0.000000
     7  O    1.227575   0.000000
     8  N    1.370840   2.271097   0.000000
     9  C    2.527227   3.634614   1.450631   0.000000
    10  C    2.424129   2.715867   1.457785   2.447355   0.000000
    11  H    5.090398   5.946090   5.183026   4.762872   6.185120
    12  H    4.995360   6.059758   4.992450   4.239222   6.216720
    13  H    5.254034   6.087411   5.667659   5.320002   6.904819
    14  H    2.131244   2.812743   3.003693   3.421061   4.304208
    15  H    2.078588   2.352084   3.342913   4.075430   4.479308
    16  H    2.686410   3.900080   2.102201   1.085065   3.381225
    17  H    3.294028   4.284609   2.089517   1.097052   2.643147
    18  H    3.166032   4.220139   2.114199   1.099038   2.794359
    19  H    3.174823   3.475714   2.107241   2.734790   1.097133
    20  H    2.453998   2.215299   2.077943   3.364403   1.087735
    21  H    3.127534   3.470494   2.107587   2.707182   1.097528
    22  C    3.863014   4.826797   4.353033   4.011419   5.807798
    23  H    4.716124   5.674445   5.157004   4.697266   6.588507
    24  H    4.105324   4.867128   4.851940   4.761605   6.283261
    25  C    4.377726   5.449967   4.512760   3.836620   5.927780
    26  H    4.630466   5.804199   4.470169   3.487030   5.815023
    27  H    3.926648   4.944441   4.019919   3.476943   5.371751
    28  O    5.667744   6.661948   5.891862   5.223871   7.302278
    29  C    6.537253   7.555976   6.555996   5.735598   7.874426
    30  H    7.490196   8.464936   7.594296   6.811474   8.929949
    31  H    6.327432   7.281566   6.311748   5.583515   7.549509
    32  H    6.799135   7.904560   6.616864   5.595166   7.879786
                   11         12         13         14         15
    11  H    0.000000
    12  H    1.782890   0.000000
    13  H    1.770434   1.770303   0.000000
    14  H    5.396425   4.752060   4.879742   0.000000
    15  H    4.754501   4.684643   4.293348   1.765557   0.000000
    16  H    4.414656   3.565002   4.662827   2.857913   3.722345
    17  H    5.748970   5.087098   6.303942   4.054467   4.968472
    18  H    4.208770   3.912209   5.098853   4.251050   4.593060
    19  H    7.022521   6.858754   7.703791   4.751431   5.248736
    20  H    6.655649   6.837527   7.288711   4.437235   4.362576
    21  H    5.918210   6.147390   6.899046   5.075152   5.058784
    22  C    3.997110   2.849671   3.015715   2.495053   3.017785
    23  H    3.524146   2.290980   2.261073   3.539562   3.743249
    24  H    4.804295   3.831981   3.608384   2.351903   2.833597
    25  C    4.925160   3.431720   4.187302   2.948613   4.103297
    26  H    4.567907   2.956586   4.142768   3.649667   4.686664
    27  H    5.607960   4.264226   5.023383   2.448507   3.959704
    28  O    5.842225   4.242265   4.803361   3.965831   5.104021
    29  C    6.933405   5.235644   6.054440   4.908665   6.272499
    30  H    7.662117   5.958067   6.620582   5.734979   7.033416
    31  H    7.504887   5.877805   6.720519   4.696659   6.253968
    32  H    6.773526   5.017677   6.102232   5.433071   6.753391
                   16         17         18         19         20
    16  H    0.000000
    17  H    1.772105   0.000000
    18  H    1.770634   1.775847   0.000000
    19  H    3.677826   2.468431   3.218687   0.000000
    20  H    4.170364   3.647590   3.745291   1.785335   0.000000
    21  H    3.730712   2.958739   2.603629   1.779697   1.785963
    22  C    3.028260   4.768888   4.429082   6.325586   6.220209
    23  H    3.730753   5.495307   4.904092   7.163859   7.032077
    24  H    3.829404   5.488181   5.302085   6.799049   6.543206
    25  C    2.756643   4.279078   4.384790   6.195670   6.507752
    26  H    2.443563   3.868329   3.840584   6.050366   6.540822
    27  H    2.495068   3.754191   4.257350   5.511631   5.921900
    28  O    4.147560   5.578306   5.759200   7.522604   7.850441
    29  C    4.722607   5.833364   6.310302   7.910171   8.510180
    30  H    5.784654   6.924571   7.371562   8.975175   9.531619
    31  H    4.654967   5.536344   6.304494   7.466623   8.155886
    32  H    4.632748   5.616210   6.035978   7.879032   8.626530
                   21         22         23         24         25
    21  H    0.000000
    22  C    6.240292   0.000000
    23  H    6.888598   1.089556   0.000000
    24  H    6.836273   1.097039   1.751927   0.000000
    25  C    6.412620   1.529468   2.139429   2.147301   0.000000
    26  H    6.146319   2.171826   2.481458   3.066488   1.103760
    27  H    5.998639   2.179729   3.064578   2.534022   1.103680
    28  O    7.817384   2.364346   2.594438   2.556698   1.410821
    29  C    8.408283   3.668178   3.927322   3.897223   2.357013
    30  H    9.477154   4.389619   4.504517   4.456674   3.275177
    31  H    8.183460   4.043637   4.550075   4.173831   2.658137
    32  H    8.300634   4.050328   4.189850   4.529628   2.661677
                   26         27         28         29         30
    26  H    0.000000
    27  H    1.776273   0.000000
    28  O    2.080634   2.077897   0.000000
    29  C    2.646632   2.632448   1.413925   0.000000
    30  H    3.627697   3.615001   2.026184   1.092052   0.000000
    31  H    3.046609   2.453496   2.088781   1.100869   1.784205
    32  H    2.473219   3.032177   2.089225   1.100963   1.784294
                   31         32
    31  H    0.000000
    32  H    1.784636   0.000000
 Stoichiometry    C9H18N2O3
 Framework group  C1[X(C9H18N2O3)]
 Deg. of freedom    90
 Full point group                 C1      NOp   1
 Largest Abelian subgroup         C1      NOp   1
 Largest concise Abelian subgroup C1      NOp   1
                         Standard orientation:                         
 ---------------------------------------------------------------------
 Center     Atomic      Atomic             Coordinates (Angstroms)
 Number     Number       Type             X           Y           Z
 ---------------------------------------------------------------------
      1          6           0        0.629445    2.854481   -0.962776
      2          6           0       -0.288085    1.918197   -0.189551
      3          8           0       -1.491239    2.132034   -0.110384
      4          7           0        0.262633    0.787664    0.389578
      5          6           0       -0.627900    0.030372    1.280674
      6          6           0       -1.969545   -0.557135    0.791853
      7          8           0       -2.853518   -0.615942    1.641602
      8          7           0       -2.137483   -1.085403   -0.461914
      9          6           0       -1.167982   -1.107888   -1.540752
     10          6           0       -3.464194   -1.565655   -0.828429
     11          1           0       -0.007009    3.511298   -1.555157
     12          1           0        1.320483    2.323105   -1.623423
     13          1           0        1.223231    3.474836   -0.282516
     14          1           0       -0.047662   -0.809285    1.677847
     15          1           0       -0.932323    0.650789    2.128124
     16          1           0       -0.170720   -0.884036   -1.176437
     17          1           0       -1.157174   -2.103792   -2.000731
     18          1           0       -1.422729   -0.377445   -2.321419
     19          1           0       -3.415710   -2.614787   -1.145717
     20          1           0       -4.116294   -1.476158    0.037552
     21          1           0       -3.869206   -0.971793   -1.657803
     22          6           0        1.698436    0.646422    0.649573
     23          1           0        2.227392    1.544061    0.330853
     24          1           0        1.871149    0.549771    1.728611
     25          6           0        2.325749   -0.558226   -0.053686
     26          1           0        2.233548   -0.448498   -1.148101
     27          1           0        1.802611   -1.489103    0.225427
     28          8           0        3.679896   -0.605653    0.339319
     29          6           0        4.386904   -1.687059   -0.235038
     30          1           0        5.413535   -1.634021    0.133462
     31          1           0        3.953674   -2.656753    0.054646
     32          1           0        4.399080   -1.628575   -1.334379
 ---------------------------------------------------------------------
 Rotational constants (GHZ):      0.8842111      0.3908914      0.3293144
 Standard basis: 6-31G(d,p) (6D, 7F)
 There are   300 symmetry adapted basis functions of A   symmetry.
 Integral buffers will be    131072 words long.
 Raffenetti 2 integral format.
 Two-electron integral symmetry is turned on.
   300 basis functions,   518 primitive gaussians,   300 cartesian basis functions
    55 alpha electrons       55 beta electrons
       nuclear repulsion energy       975.7802540553 Hartrees.
 NAtoms=   32 NActive=   32 NUniq=   32 SFac= 1.00D+00 NAtFMM=   60 NAOKFM=F Big=F
 One-electron integrals computed using PRISM.
 NBasis=   300 RedAO= T  NBF=   300
 NBsUse=   300 1.00D-06 NBFU=   300
 Harris functional with IExCor=  402 diagonalized for initial guess.
 ExpMin= 1.61D-01 ExpMax= 5.48D+03 ExpMxC= 8.25D+02 IAcc=1 IRadAn=         1 AccDes= 0.00D+00
 HarFok:  IExCor=  402 AccDes= 0.00D+00 IRadAn=         1 IDoV= 1
 ScaDFX=  1.000000  1.000000  1.000000  1.000000
 FoFCou: FMM=F IPFlag=           0 FMFlag=      100000 FMFlg1=           0
         NFxFlg=           0 DoJE=T BraDBF=F KetDBF=T FulRan=T
         Omega=  0.000000  0.000000  1.000000  0.000000  0.000000 ICntrl=     500 IOpCl=  0
         NMat0=    1 NMatS0=    1 NMatT0=    0 NMatD0=    1 NMtDS0=    0 NMtDT0=    0
         I1Cent=           4 NGrid=           0.
 Petite list used in FoFCou.
 Initial guess orbital symmetries:
       Occupied  (A) (A) (A) (A) (A) (A) (A) (A) (A) (A) (A) (A)
                 (A) (A) (A) (A) (A) (A) (A) (A) (A) (A) (A) (A)
                 (A) (A) (A) (A) (A) (A) (A) (A) (A) (A) (A) (A)
                 (A) (A) (A) (A) (A) (A) (A) (A) (A) (A) (A) (A)
                 (A) (A) (A) (A) (A) (A) (A)
       Virtual   (A) (A) (A) (A) (A) (A) (A) (A) (A) (A) (A) (A)
                 (A) (A) (A) (A) (A) (A) (A) (A) (A) (A) (A) (A)
                 (A) (A) (A) (A) (A) (A) (A) (A) (A) (A) (A) (A)
                 (A) (A) (A) (A) (A) (A) (A) (A) (A) (A) (A) (A)
                 (A) (A) (A) (A) (A) (A) (A) (A) (A) (A) (A) (A)
                 (A) (A) (A) (A) (A) (A) (A) (A) (A) (A) (A) (A)
                 (A) (A) (A) (A) (A) (A) (A) (A) (A) (A) (A) (A)
                 (A) (A) (A) (A) (A) (A) (A) (A) (A) (A) (A) (A)
                 (A) (A) (A) (A) (A) (A) (A) (A) (A) (A) (A) (A)
                 (A) (A) (A) (A) (A) (A) (A) (A) (A) (A) (A) (A)
                 (A) (A) (A) (A) (A) (A) (A) (A) (A) (A) (A) (A)
                 (A) (A) (A) (A) (A) (A) (A) (A) (A) (A) (A) (A)
                 (A) (A) (A) (A) (A) (A) (A) (A) (A) (A) (A) (A)
                 (A) (A) (A) (A) (A) (A) (A) (A) (A) (A) (A) (A)
                 (A) (A) (A) (A) (A) (A) (A) (A) (A) (A) (A) (A)
                 (A) (A) (A) (A) (A) (A) (A) (A) (A) (A) (A) (A)
                 (A) (A) (A) (A) (A) (A) (A) (A) (A) (A) (A) (A)
                 (A) (A) (A) (A) (A) (A) (A) (A) (A) (A) (A) (A)
                 (A) (A) (A) (A) (A) (A) (A) (A) (A) (A) (A) (A)
                 (A) (A) (A) (A) (A) (A) (A) (A) (A) (A) (A) (A)
                 (A) (A) (A) (A) (A)
 The electronic state of the initial guess is 1-A.
 Requested convergence on RMS density matrix=1.00D-08 within 128 cycles.
 Requested convergence on MAX density matrix=1.00D-06.
 Requested convergence on             energy=1.00D-06.
 No special actions if energy rises.
 Keep R1 ints in memory in canonical form, NReq=1033483872.
 Integral accuracy reduced to 1.0D-05 until final iterations.
 Initial convergence to 1.0D-05 achieved.  Increase integral accuracy.
 SCF Done:  E(RB3LYP) =  -688.986137650     A.U. after   14 cycles
             Convg  =    0.8633D-08             -V/T =  2.0093

 **********************************************************************

            Population analysis using the SCF density.

 **********************************************************************

 Orbital symmetries:
       Occupied  (A) (A) (A) (A) (A) (A) (A) (A) (A) (A) (A) (A)
                 (A) (A) (A) (A) (A) (A) (A) (A) (A) (A) (A) (A)
                 (A) (A) (A) (A) (A) (A) (A) (A) (A) (A) (A) (A)
                 (A) (A) (A) (A) (A) (A) (A) (A) (A) (A) (A) (A)
                 (A) (A) (A) (A) (A) (A) (A)
       Virtual   (A) (A) (A) (A) (A) (A) (A) (A) (A) (A) (A) (A)
                 (A) (A) (A) (A) (A) (A) (A) (A) (A) (A) (A) (A)
                 (A) (A) (A) (A) (A) (A) (A) (A) (A) (A) (A) (A)
                 (A) (A) (A) (A) (A) (A) (A) (A) (A) (A) (A) (A)
                 (A) (A) (A) (A) (A) (A) (A) (A) (A) (A) (A) (A)
                 (A) (A) (A) (A) (A) (A) (A) (A) (A) (A) (A) (A)
                 (A) (A) (A) (A) (A) (A) (A) (A) (A) (A) (A) (A)
                 (A) (A) (A) (A) (A) (A) (A) (A) (A) (A) (A) (A)
                 (A) (A) (A) (A) (A) (A) (A) (A) (A) (A) (A) (A)
                 (A) (A) (A) (A) (A) (A) (A) (A) (A) (A) (A) (A)
                 (A) (A) (A) (A) (A) (A) (A) (A) (A) (A) (A) (A)
                 (A) (A) (A) (A) (A) (A) (A) (A) (A) (A) (A) (A)
                 (A) (A) (A) (A) (A) (A) (A) (A) (A) (A) (A) (A)
                 (A) (A) (A) (A) (A) (A) (A) (A) (A) (A) (A) (A)
                 (A) (A) (A) (A) (A) (A) (A) (A) (A) (A) (A) (A)
                 (A) (A) (A) (A) (A) (A) (A) (A) (A) (A) (A) (A)
                 (A) (A) (A) (A) (A) (A) (A) (A) (A) (A) (A) (A)
                 (A) (A) (A) (A) (A) (A) (A) (A) (A) (A) (A) (A)
                 (A) (A) (A) (A) (A) (A) (A) (A) (A) (A) (A) (A)
                 (A) (A) (A) (A) (A) (A) (A) (A) (A) (A) (A) (A)
                 (A) (A) (A) (A) (A)
 The electronic state is 1-A.
 Alpha  occ. eigenvalues --  -19.16591 -19.11634 -19.09533 -14.37171 -14.35798
 Alpha  occ. eigenvalues --  -10.29056 -10.27870 -10.25084 -10.24155 -10.23718
 Alpha  occ. eigenvalues --  -10.22829 -10.21892 -10.20332 -10.19765  -1.05000
 Alpha  occ. eigenvalues --   -1.03820  -1.01879  -0.93856  -0.92217  -0.77840
 Alpha  occ. eigenvalues --   -0.76016  -0.72175  -0.71266  -0.68820  -0.67401
 Alpha  occ. eigenvalues --   -0.63300  -0.56931  -0.54076  -0.51596  -0.50651
 Alpha  occ. eigenvalues --   -0.48941  -0.48356  -0.47877  -0.46727  -0.46176
 Alpha  occ. eigenvalues --   -0.44782  -0.44448  -0.43246  -0.42520  -0.40593
 Alpha  occ. eigenvalues --   -0.40141  -0.39777  -0.39598  -0.39315  -0.38207
 Alpha  occ. eigenvalues --   -0.37480  -0.36922  -0.35749  -0.34280  -0.33565
 Alpha  occ. eigenvalues --   -0.27288  -0.25611  -0.25070  -0.23373  -0.22892
 Alpha virt. eigenvalues --    0.01587   0.03549   0.06866   0.07587   0.09639
 Alpha virt. eigenvalues --    0.10190   0.11776   0.12031   0.13346   0.13930
 Alpha virt. eigenvalues --    0.14611   0.14774   0.15075   0.15810   0.16114
 Alpha virt. eigenvalues --    0.16564   0.16891   0.17909   0.18347   0.18522
 Alpha virt. eigenvalues --    0.19143   0.20227   0.20923   0.22563   0.22713
 Alpha virt. eigenvalues --    0.24444   0.25232   0.26676   0.29588   0.33729
 Alpha virt. eigenvalues --    0.34104   0.36732   0.41541   0.46539   0.47440
 Alpha virt. eigenvalues --    0.48791   0.50364   0.50980   0.52893   0.53878
 Alpha virt. eigenvalues --    0.54171   0.55102   0.56315   0.56549   0.57424
 Alpha virt. eigenvalues --    0.59385   0.60191   0.62422   0.63533   0.64302
 Alpha virt. eigenvalues --    0.67155   0.67435   0.68810   0.70362   0.71474
 Alpha virt. eigenvalues --    0.71914   0.74389   0.75599   0.76067   0.77631
 Alpha virt. eigenvalues --    0.78458   0.79093   0.80114   0.81423   0.82798
 Alpha virt. eigenvalues --    0.83029   0.84206   0.84576   0.85569   0.85641
 Alpha virt. eigenvalues --    0.86396   0.87516   0.88875   0.89168   0.89641
 Alpha virt. eigenvalues --    0.90255   0.92027   0.92541   0.93022   0.94722
 Alpha virt. eigenvalues --    0.96135   0.96882   0.98523   0.99446   1.00760
 Alpha virt. eigenvalues --    1.02284   1.04782   1.05207   1.07753   1.10502
 Alpha virt. eigenvalues --    1.12222   1.15347   1.18303   1.20152   1.23609
 Alpha virt. eigenvalues --    1.24370   1.27378   1.28156   1.30661   1.32192
 Alpha virt. eigenvalues --    1.36022   1.36117   1.36859   1.38156   1.40057
 Alpha virt. eigenvalues --    1.41196   1.43755   1.47280   1.51481   1.53665
 Alpha virt. eigenvalues --    1.56300   1.57895   1.62553   1.63545   1.66393
 Alpha virt. eigenvalues --    1.68179   1.68584   1.69968   1.72857   1.74197
 Alpha virt. eigenvalues --    1.75211   1.77579   1.79016   1.81410   1.82655
 Alpha virt. eigenvalues --    1.83765   1.84356   1.85948   1.86515   1.86837
 Alpha virt. eigenvalues --    1.89707   1.89973   1.91456   1.92058   1.93781
 Alpha virt. eigenvalues --    1.95642   1.95975   1.96571   1.97413   1.99502
 Alpha virt. eigenvalues --    2.00837   2.01555   2.02068   2.02724   2.02991
 Alpha virt. eigenvalues --    2.04026   2.04753   2.05308   2.06218   2.06504
 Alpha virt. eigenvalues --    2.07919   2.08471   2.08825   2.10372   2.11784
 Alpha virt. eigenvalues --    2.12631   2.13745   2.16341   2.18562   2.20663
 Alpha virt. eigenvalues --    2.22652   2.23461   2.24866   2.27248   2.27651
 Alpha virt. eigenvalues --    2.29872   2.33262   2.33867   2.37859   2.39595
 Alpha virt. eigenvalues --    2.41916   2.43188   2.46069   2.48197   2.50886
 Alpha virt. eigenvalues --    2.52782   2.54443   2.54900   2.56077   2.57183
 Alpha virt. eigenvalues --    2.58167   2.59172   2.61315   2.62673   2.65116
 Alpha virt. eigenvalues --    2.66100   2.68064   2.69034   2.69549   2.70380
 Alpha virt. eigenvalues --    2.71627   2.73925   2.74387   2.75396   2.78674
 Alpha virt. eigenvalues --    2.80145   2.82400   2.82873   2.83789   2.84557
 Alpha virt. eigenvalues --    2.85793   2.88572   2.89490   2.91023   2.92471
 Alpha virt. eigenvalues --    2.96808   2.97656   3.00488   3.05108   3.06615
 Alpha virt. eigenvalues --    3.09493   3.14254   3.16541   3.17002   3.18983
 Alpha virt. eigenvalues --    3.22150   3.25418   3.25900   3.33982   3.34588
 Alpha virt. eigenvalues --    3.36646   3.39386   3.41285   3.41850   3.42782
 Alpha virt. eigenvalues --    3.44662   3.45112   3.45306   3.47477   3.52127
 Alpha virt. eigenvalues --    3.53588   3.99034   4.01204   4.02927   4.12000
 Alpha virt. eigenvalues --    4.20271   4.30969   4.34003   4.41451   4.44673
 Alpha virt. eigenvalues --    4.50896   4.55320   4.59690   4.69130   4.72092
          Condensed to atoms (all electrons):
              1          2          3          4          5          6
     1  C    5.162270   0.344622  -0.079403  -0.123898   0.006371  -0.000017
     2  C    0.344622   4.370659   0.586966   0.255974  -0.030477  -0.002298
     3  O   -0.079403   0.586966   8.060245  -0.101267   0.004187   0.011495
     4  N   -0.123898   0.255974  -0.101267   7.211408   0.186050  -0.023364
     5  C    0.006371  -0.030477   0.004187   0.186050   5.100729   0.324660
     6  C   -0.000017  -0.002298   0.011495  -0.023364   0.324660   4.360339
     7  O   -0.000004  -0.000194  -0.001137   0.002503  -0.073602   0.553945
     8  N   -0.000009  -0.000296  -0.002712   0.007417  -0.103785   0.275462
     9  C   -0.000076   0.000765   0.001051  -0.014008  -0.000518  -0.018546
    10  C    0.000000  -0.000072  -0.000038  -0.000193   0.005291  -0.028350
    11  H    0.369236  -0.022907   0.004493   0.004389  -0.000129   0.000001
    12  H    0.357652  -0.022244   0.002012   0.003995   0.000013  -0.000011
    13  H    0.364090  -0.019472   0.000809   0.001317  -0.000289   0.000000
    14  H   -0.000145   0.005659   0.000818  -0.040047   0.364039  -0.028320
    15  H    0.000161  -0.004136   0.004765  -0.041735   0.370904  -0.032983
    16  H   -0.000085  -0.001549  -0.000738   0.006195   0.001825  -0.005466
    17  H    0.000000   0.000080   0.000011   0.000515  -0.000545   0.001820
    18  H    0.000120   0.001063   0.000692  -0.000740   0.000584  -0.001080
    19  H    0.000000   0.000000  -0.000001   0.000001  -0.000195   0.001327
    20  H    0.000000  -0.000005  -0.000012  -0.000017   0.001065  -0.004157
    21  H    0.000001   0.000004   0.000052  -0.000007  -0.000056   0.000855
    22  C    0.000183  -0.021975   0.002168   0.242025  -0.032090   0.002485
    23  H    0.007763  -0.007944   0.000171  -0.030520   0.002805  -0.000113
    24  H   -0.000376   0.001081  -0.000011  -0.039525  -0.002875   0.000013
    25  C   -0.000577   0.000111  -0.000046  -0.051840  -0.002366   0.000075
    26  H   -0.000156   0.000505  -0.000010   0.003055  -0.000171   0.000048
    27  H    0.000024  -0.000031   0.000001   0.000703   0.001337  -0.000399
    28  O   -0.000007   0.000011   0.000000   0.001870  -0.000016   0.000000
    29  C    0.000000  -0.000001   0.000000  -0.000123   0.000001   0.000000
    30  H    0.000000   0.000000   0.000000   0.000001   0.000000   0.000000
    31  H    0.000000   0.000000   0.000000   0.000012  -0.000002   0.000000
    32  H    0.000000   0.000000   0.000000   0.000007   0.000000   0.000000
              7          8          9         10         11         12
     1  C   -0.000004  -0.000009  -0.000076   0.000000   0.369236   0.357652
     2  C   -0.000194  -0.000296   0.000765  -0.000072  -0.022907  -0.022244
     3  O   -0.001137  -0.002712   0.001051  -0.000038   0.004493   0.002012
     4  N    0.002503   0.007417  -0.014008  -0.000193   0.004389   0.003995
     5  C   -0.073602  -0.103785  -0.000518   0.005291  -0.000129   0.000013
     6  C    0.553945   0.275462  -0.018546  -0.028350   0.000001  -0.000011
     7  O    8.111634  -0.090764   0.002937  -0.015351   0.000000   0.000000
     8  N   -0.090764   6.996495   0.297158   0.297917   0.000001   0.000005
     9  C    0.002937   0.297158   4.812986  -0.053311   0.000001  -0.000016
    10  C   -0.015351   0.297917  -0.053311   4.823119   0.000000   0.000000
    11  H    0.000000   0.000001   0.000001   0.000000   0.541976  -0.023551
    12  H    0.000000   0.000005  -0.000016   0.000000  -0.023551   0.591233
    13  H    0.000000  -0.000001   0.000003   0.000000  -0.021443  -0.030082
    14  H    0.000346   0.000792   0.000255  -0.000136   0.000003  -0.000009
    15  H    0.007985   0.004684  -0.000192  -0.000153  -0.000009  -0.000002
    16  H    0.000044  -0.028404   0.381575   0.004568  -0.000002   0.000199
    17  H   -0.000041  -0.044026   0.381934  -0.004388   0.000000  -0.000003
    18  H   -0.000047  -0.045651   0.381665  -0.000862  -0.000002  -0.000029
    19  H    0.000771  -0.044116  -0.002698   0.383632   0.000000   0.000000
    20  H    0.026329  -0.034755   0.004583   0.382105   0.000000   0.000000
    21  H    0.000750  -0.047407  -0.001136   0.386733   0.000000   0.000000
    22  C   -0.000039  -0.000084   0.000399   0.000002   0.000419  -0.002615
    23  H    0.000001   0.000004  -0.000038   0.000000  -0.000022  -0.001291
    24  H    0.000002   0.000011  -0.000072   0.000000  -0.000016   0.000213
    25  C   -0.000001  -0.000007  -0.000503   0.000001   0.000005  -0.000083
    26  H    0.000000   0.000004  -0.001006   0.000000  -0.000015   0.001569
    27  H    0.000002   0.000042  -0.000200  -0.000002   0.000001  -0.000048
    28  O    0.000000   0.000000   0.000009   0.000000   0.000000  -0.000028
    29  C    0.000000   0.000000   0.000001   0.000000   0.000000  -0.000001
    30  H    0.000000   0.000000   0.000000   0.000000   0.000000   0.000000
    31  H    0.000000   0.000000  -0.000001   0.000000   0.000000   0.000000
    32  H    0.000000   0.000000  -0.000001   0.000000   0.000000   0.000002
             13         14         15         16         17         18
     1  C    0.364090  -0.000145   0.000161  -0.000085   0.000000   0.000120
     2  C   -0.019472   0.005659  -0.004136  -0.001549   0.000080   0.001063
     3  O    0.000809   0.000818   0.004765  -0.000738   0.000011   0.000692
     4  N    0.001317  -0.040047  -0.041735   0.006195   0.000515  -0.000740
     5  C   -0.000289   0.364039   0.370904   0.001825  -0.000545   0.000584
     6  C    0.000000  -0.028320  -0.032983  -0.005466   0.001820  -0.001080
     7  O    0.000000   0.000346   0.007985   0.000044  -0.000041  -0.000047
     8  N   -0.000001   0.000792   0.004684  -0.028404  -0.044026  -0.045651
     9  C    0.000003   0.000255  -0.000192   0.381575   0.381934   0.381665
    10  C    0.000000  -0.000136  -0.000153   0.004568  -0.004388  -0.000862
    11  H   -0.021443   0.000003  -0.000009  -0.000002   0.000000  -0.000002
    12  H   -0.030082  -0.000009  -0.000002   0.000199  -0.000003  -0.000029
    13  H    0.567132  -0.000006   0.000033  -0.000001   0.000000   0.000002
    14  H   -0.000006   0.599886  -0.026738  -0.000701   0.000037  -0.000008
    15  H    0.000033  -0.026738   0.558374   0.000210   0.000000   0.000020
    16  H   -0.000001  -0.000701   0.000210   0.574077  -0.027744  -0.030978
    17  H    0.000000   0.000037   0.000000  -0.027744   0.628532  -0.048556
    18  H    0.000002  -0.000008   0.000020  -0.030978  -0.048556   0.619236
    19  H    0.000000   0.000019  -0.000001   0.000032   0.007395  -0.001694
    20  H    0.000000  -0.000033  -0.000026  -0.000244  -0.000002  -0.000074
    21  H    0.000000  -0.000005   0.000012   0.000012  -0.002400   0.006824
    22  C   -0.002198  -0.000358  -0.002276  -0.003104   0.000020  -0.000029
    23  H    0.001363   0.000385   0.000002   0.000008   0.000001   0.000003
    24  H    0.000311  -0.001130   0.003469   0.000203   0.000002  -0.000001
    25  C    0.000019  -0.001171  -0.000287   0.001237  -0.000020   0.000016
    26  H    0.000034  -0.000154  -0.000003   0.003296   0.000064  -0.000008
    27  H   -0.000004   0.003778   0.000046   0.001119   0.000061   0.000006
    28  O   -0.000001  -0.000109   0.000002  -0.000027   0.000000   0.000000
    29  C    0.000000   0.000001   0.000000  -0.000004   0.000000   0.000000
    30  H    0.000000   0.000000   0.000000   0.000000   0.000000   0.000000
    31  H    0.000000   0.000004   0.000000   0.000003   0.000000   0.000000
    32  H    0.000000   0.000000   0.000000   0.000008   0.000000   0.000000
             19         20         21         22         23         24
     1  C    0.000000   0.000000   0.000001   0.000183   0.007763  -0.000376
     2  C    0.000000  -0.000005   0.000004  -0.021975  -0.007944   0.001081
     3  O   -0.000001  -0.000012   0.000052   0.002168   0.000171  -0.000011
     4  N    0.000001  -0.000017  -0.000007   0.242025  -0.030520  -0.039525
     5  C   -0.000195   0.001065  -0.000056  -0.032090   0.002805  -0.002875
     6  C    0.001327  -0.004157   0.000855   0.002485  -0.000113   0.000013
     7  O    0.000771   0.026329   0.000750  -0.000039   0.000001   0.000002
     8  N   -0.044116  -0.034755  -0.047407  -0.000084   0.000004   0.000011
     9  C   -0.002698   0.004583  -0.001136   0.000399  -0.000038  -0.000072
    10  C    0.383632   0.382105   0.386733   0.000002   0.000000   0.000000
    11  H    0.000000   0.000000   0.000000   0.000419  -0.000022  -0.000016
    12  H    0.000000   0.000000   0.000000  -0.002615  -0.001291   0.000213
    13  H    0.000000   0.000000   0.000000  -0.002198   0.001363   0.000311
    14  H    0.000019  -0.000033  -0.000005  -0.000358   0.000385  -0.001130
    15  H   -0.000001  -0.000026   0.000012  -0.002276   0.000002   0.003469
    16  H    0.000032  -0.000244   0.000012  -0.003104   0.000008   0.000203
    17  H    0.007395  -0.000002  -0.002400   0.000020   0.000001   0.000002
    18  H   -0.001694  -0.000074   0.006824  -0.000029   0.000003  -0.000001
    19  H    0.622252  -0.024834  -0.045761   0.000000   0.000000   0.000000
    20  H   -0.024834   0.510775  -0.023427   0.000000   0.000000   0.000000
    21  H   -0.045761  -0.023427   0.611450   0.000000   0.000000   0.000000
    22  C    0.000000   0.000000   0.000000   4.889833   0.377349   0.380080
    23  H    0.000000   0.000000   0.000000   0.377349   0.592362  -0.031899
    24  H    0.000000   0.000000   0.000000   0.380080  -0.031899   0.609398
    25  C    0.000000   0.000000   0.000000   0.360481  -0.039576  -0.051756
    26  H    0.000000   0.000000   0.000000  -0.036396  -0.009306   0.006812
    27  H    0.000000   0.000000   0.000000  -0.039945   0.006569  -0.008055
    28  O    0.000000   0.000000   0.000000  -0.040733   0.005131   0.006205
    29  C    0.000000   0.000000   0.000000   0.004560  -0.000087  -0.000141
    30  H    0.000000   0.000000   0.000000  -0.000257   0.000005   0.000010
    31  H    0.000000   0.000000   0.000000   0.000023   0.000048  -0.000059
    32  H    0.000000   0.000000   0.000000   0.000045  -0.000067   0.000051
             25         26         27         28         29         30
     1  C   -0.000577  -0.000156   0.000024  -0.000007   0.000000   0.000000
     2  C    0.000111   0.000505  -0.000031   0.000011  -0.000001   0.000000
     3  O   -0.000046  -0.000010   0.000001   0.000000   0.000000   0.000000
     4  N   -0.051840   0.003055   0.000703   0.001870  -0.000123   0.000001
     5  C   -0.002366  -0.000171   0.001337  -0.000016   0.000001   0.000000
     6  C    0.000075   0.000048  -0.000399   0.000000   0.000000   0.000000
     7  O   -0.000001   0.000000   0.000002   0.000000   0.000000   0.000000
     8  N   -0.000007   0.000004   0.000042   0.000000   0.000000   0.000000
     9  C   -0.000503  -0.001006  -0.000200   0.000009   0.000001   0.000000
    10  C    0.000001   0.000000  -0.000002   0.000000   0.000000   0.000000
    11  H    0.000005  -0.000015   0.000001   0.000000   0.000000   0.000000
    12  H   -0.000083   0.001569  -0.000048  -0.000028  -0.000001   0.000000
    13  H    0.000019   0.000034  -0.000004  -0.000001   0.000000   0.000000
    14  H   -0.001171  -0.000154   0.003778  -0.000109   0.000001   0.000000
    15  H   -0.000287  -0.000003   0.000046   0.000002   0.000000   0.000000
    16  H    0.001237   0.003296   0.001119  -0.000027  -0.000004   0.000000
    17  H   -0.000020   0.000064   0.000061   0.000000   0.000000   0.000000
    18  H    0.000016  -0.000008   0.000006   0.000000   0.000000   0.000000
    19  H    0.000000   0.000000   0.000000   0.000000   0.000000   0.000000
    20  H    0.000000   0.000000   0.000000   0.000000   0.000000   0.000000
    21  H    0.000000   0.000000   0.000000   0.000000   0.000000   0.000000
    22  C    0.360481  -0.036396  -0.039945  -0.040733   0.004560  -0.000257
    23  H   -0.039576  -0.009306   0.006569   0.005131  -0.000087   0.000005
    24  H   -0.051756   0.006812  -0.008055   0.006205  -0.000141   0.000010
    25  C    4.779318   0.359380   0.366279   0.233536  -0.034587   0.005339
    26  H    0.359380   0.686613  -0.063605  -0.039516  -0.006171  -0.000116
    27  H    0.366279  -0.063605   0.680703  -0.038704  -0.005985  -0.000106
    28  O    0.233536  -0.039516  -0.038704   8.211335   0.257850  -0.032571
    29  C   -0.034587  -0.006171  -0.005985   0.257850   4.710192   0.395371
    30  H    0.005339  -0.000116  -0.000106  -0.032571   0.395371   0.579248
    31  H   -0.009012  -0.002701   0.013181  -0.037245   0.371494  -0.034073
    32  H   -0.008743   0.012995  -0.002704  -0.037502   0.370877  -0.034599
             31         32
     1  C    0.000000   0.000000
     2  C    0.000000   0.000000
     3  O    0.000000   0.000000
     4  N    0.000012   0.000007
     5  C   -0.000002   0.000000
     6  C    0.000000   0.000000
     7  O    0.000000   0.000000
     8  N    0.000000   0.000000
     9  C   -0.000001  -0.000001
    10  C    0.000000   0.000000
    11  H    0.000000   0.000000
    12  H    0.000000   0.000002
    13  H    0.000000   0.000000
    14  H    0.000004   0.000000
    15  H    0.000000   0.000000
    16  H    0.000003   0.000008
    17  H    0.000000   0.000000
    18  H    0.000000   0.000000
    19  H    0.000000   0.000000
    20  H    0.000000   0.000000
    21  H    0.000000   0.000000
    22  C    0.000023   0.000045
    23  H    0.000048  -0.000067
    24  H   -0.000059   0.000051
    25  C   -0.009012  -0.008743
    26  H   -0.002701   0.012995
    27  H    0.013181  -0.002704
    28  O   -0.037245  -0.037502
    29  C    0.371494   0.370877
    30  H   -0.034073  -0.034599
    31  H    0.653701  -0.051749
    32  H   -0.051749   0.656666
 Mulliken atomic charges:
              1
     1  C   -0.407740
     2  C    0.566104
     3  O   -0.494561
     4  N   -0.460153
     5  C   -0.122745
     6  C    0.612578
     7  O   -0.526069
     8  N   -0.437976
     9  C   -0.173005
    10  C   -0.180514
    11  H    0.147571
    12  H    0.123121
    13  H    0.138381
    14  H    0.123050
    15  H    0.157876
    16  H    0.124436
    17  H    0.107252
    18  H    0.119527
    19  H    0.103871
    20  H    0.162728
    21  H    0.113507
    22  C   -0.077974
    23  H    0.126894
    24  H    0.128056
    25  C    0.094777
    26  H    0.084961
    27  H    0.085938
    28  O   -0.489488
    29  C   -0.063244
    30  H    0.121749
    31  H    0.096376
    32  H    0.094715
 Sum of Mulliken atomic charges =   0.00000
 Mulliken charges with hydrogens summed into heavy atoms:
              1
     1  C    0.001333
     2  C    0.566104
     3  O   -0.494561
     4  N   -0.460153
     5  C    0.158181
     6  C    0.612578
     7  O   -0.526069
     8  N   -0.437976
     9  C    0.178210
    10  C    0.199592
    22  C    0.176976
    25  C    0.265677
    28  O   -0.489488
    29  C    0.249595
 Sum of Mulliken charges with hydrogens summed into heavy atoms =   0.00000
 Electronic spatial extent (au):  <R**2>=           3635.7224
 Charge=              0.0000 electrons
 Dipole moment (field-independent basis, Debye):
    X=              5.0322    Y=             -1.7303    Z=             -3.1429  Tot=              6.1802
 Quadrupole moment (field-independent basis, Debye-Ang):
   XX=            -92.3879   YY=            -81.7338   ZZ=            -85.5752
   XY=              2.7449   XZ=              6.5238   YZ=              2.4569
 Traceless Quadrupole moment (field-independent basis, Debye-Ang):
   XX=             -5.8223   YY=              4.8319   ZZ=              0.9904
   XY=              2.7449   XZ=              6.5238   YZ=              2.4569
 Octapole moment (field-independent basis, Debye-Ang**2):
  XXX=             34.1916  YYY=              0.2265  ZZZ=             -3.1643  XYY=             21.9212
  XXY=            -30.0700  XXZ=            -37.3391  XZZ=             10.4147  YZZ=              5.4193
  YYZ=             -3.3977  XYZ=             -5.9344
 Hexadecapole moment (field-independent basis, Debye-Ang**3):
 XXXX=          -2847.3672 YYYY=          -1139.7181 ZZZZ=           -543.3905 XXXY=            -82.1473
 XXXZ=             41.7345 YYYX=             18.4546 YYYZ=             -8.1205 ZZZX=             22.4088
 ZZZY=              3.0701 XXYY=           -653.2339 XXZZ=           -623.3495 YYZZ=           -277.3218
 XXYZ=             30.0711 YYXZ=              5.2980 ZZXY=            -10.9979
 N-N= 9.757802540553D+02 E-N=-3.557092085854D+03  KE= 6.826161283866D+02
 Calling FoFJK, ICntrl=      2127 FMM=F ISym2X=0 I1Cent= 0 IOpClX= 0 NMat=1 NMatS=1 NMatT=0.
 ***** Axes restored to original set *****
 -------------------------------------------------------------------
 Center     Atomic                   Forces (Hartrees/Bohr)
 Number     Number              X              Y              Z
 -------------------------------------------------------------------
      1        6          -0.000002552    0.000003600    0.000004987
      2        6          -0.000601650   -0.001057386   -0.001493070
      3        8          -0.000001627   -0.000003569    0.000000745
      4        7           0.000360815    0.002353054    0.002371235
      5        6           0.001084922   -0.002856645   -0.001342745
      6        6          -0.000850890    0.001547612    0.000469985
      7        8          -0.000003479   -0.000008329   -0.000006293
      8        7           0.000002351    0.000003875   -0.000009023
      9        6           0.000004693   -0.000003323   -0.000005039
     10        6          -0.000000875   -0.000004631   -0.000003613
     11        1          -0.000002987    0.000001583    0.000006751
     12        1          -0.000001189    0.000003359    0.000006536
     13        1          -0.000004464    0.000000924    0.000008264
     14        1          -0.000001085   -0.000004612   -0.000002813
     15        1          -0.000004415   -0.000006745    0.000000403
     16        1           0.000002057    0.000001952   -0.000002225
     17        1           0.000005044    0.000002228   -0.000005151
     18        1           0.000004372    0.000003173   -0.000001672
     19        1           0.000003628   -0.000002191   -0.000008721
     20        1          -0.000000598   -0.000007075   -0.000009026
     21        1           0.000003739   -0.000002633   -0.000006441
     22        6          -0.000003014    0.000003325    0.000004995
     23        1          -0.000003069    0.000001294    0.000006162
     24        1          -0.000003388   -0.000001767    0.000002929
     25        6           0.000002578    0.000000773    0.000000558
     26        1           0.000000899    0.000004391    0.000002073
     27        1           0.000001463    0.000001932   -0.000000844
     28        8          -0.000001042    0.000002413    0.000002719
     29        6           0.000002230    0.000005097    0.000002291
     30        1           0.000001484    0.000006022    0.000003565
     31        1           0.000002928    0.000004734   -0.000000082
     32        1           0.000003122    0.000007566    0.000002563
 -------------------------------------------------------------------
 Cartesian Forces:  Max     0.002856645 RMS     0.000554160

 GradGradGradGradGradGradGradGradGradGradGradGradGradGradGradGradGradGrad
 Berny optimization.
 Internal  Forces:  Max     0.001768099 RMS     0.000235474
 Search for a local minimum.
 Step number   1 out of a maximum of  155 on scan point     1 out of    37
 All quantities printed in internal units (Hartrees-Bohrs-Radians)
 Mixed Optimization -- En-DIIS/RFO-DIIS
 Second derivative matrix not updated -- first step.
 ITU=  0
     Eigenvalues ---    0.00376   0.00475   0.00725   0.00819   0.00927
     Eigenvalues ---    0.01022   0.01042   0.01251   0.01305   0.01508
     Eigenvalues ---    0.01549   0.01897   0.02078   0.02282   0.04085
     Eigenvalues ---    0.05394   0.05501   0.05881   0.06152   0.06882
     Eigenvalues ---    0.07342   0.07477   0.07499   0.07564   0.07645
     Eigenvalues ---    0.09489   0.10039   0.10514   0.11082   0.11294
     Eigenvalues ---    0.11993   0.12941   0.13592   0.16000   0.16000
     Eigenvalues ---    0.16000   0.16000   0.16000   0.16000   0.16000
     Eigenvalues ---    0.16000   0.16000   0.16000   0.16000   0.16000
     Eigenvalues ---    0.21778   0.21923   0.21955   0.22179   0.23364
     Eigenvalues ---    0.24822   0.24902   0.24913   0.24986   0.25000
     Eigenvalues ---    0.25000   0.25000   0.28162   0.29473   0.30178
     Eigenvalues ---    0.33270   0.33278   0.33576   0.33586   0.33789
     Eigenvalues ---    0.33957   0.34001   0.34010   0.34012   0.34182
     Eigenvalues ---    0.34219   0.34380   0.34410   0.34577   0.34850
     Eigenvalues ---    0.34864   0.35076   0.35389   0.35753   0.36227
     Eigenvalues ---    0.37243   0.38162   0.43388   0.43873   0.48292
     Eigenvalues ---    0.50816   0.92104   0.933871000.000001000.00000
     Eigenvalues --- 1000.000001000.000001000.000001000.000001000.00000
     Eigenvalues --- 1000.000001000.000001000.000001000.000001000.00000
     Eigenvalues --- 1000.000001000.000001000.000001000.000001000.00000
     Eigenvalues --- 1000.000001000.000001000.000001000.000001000.00000
     Eigenvalues --- 1000.000001000.000001000.000001000.000001000.00000
     Eigenvalues --- 1000.000001000.000001000.000001000.000001000.00000
     Eigenvalues --- 1000.000001000.000001000.000001000.000001000.00000
     Eigenvalues --- 1000.000001000.000001000.000001000.000001000.00000
     Eigenvalues --- 1000.000001000.000001000.000001000.000001000.00000
     Eigenvalues --- 1000.000001000.000001000.000001000.000001000.00000
     Eigenvalues --- 1000.000001000.000001000.000001000.000001000.00000
 RFO step:  Lambda= 0.00000000D+00 EMin= 3.76145482D-03
 Linear search not attempted -- first point.
 Iteration  1 RMS(Cart)=  0.00012021 RMS(Int)=  0.00000001
 Iteration  2 RMS(Cart)=  0.00000001 RMS(Int)=  0.00000000
 Iteration  1 RMS(Cart)=  0.00000000 RMS(Int)=  0.00000000
 Variable       Old X    -DE/DX   Delta X   Delta X   Delta X     New X
                                 (Linear)    (Quad)   (Total)
    R1        2.87609   0.00000   0.00000   0.00000   0.00000   2.87609
    R2        2.05919   0.00000   0.00000   0.00000   0.00000   2.05919
    R3        2.06694   0.00000   0.00000   0.00000   0.00000   2.06694
    R4        2.07024   0.00000   0.00000   0.00000   0.00000   2.07024
    R5        2.31410   0.00000   0.00000   0.00000   0.00000   2.31410
    R6        2.61629   0.00000   0.00000   0.00000   0.00000   2.61629
    R7        2.77770   0.00000   0.00000   0.00000   0.00000   2.77770
    R8        2.77029   0.00000   0.00000   0.00000   0.00000   2.77029
    R9        2.91785   0.00000   0.00000   0.00000   0.00000   2.91785
   R10        2.06961   0.00000   0.00000   0.00000   0.00000   2.06961
   R11        2.06643   0.00000   0.00000   0.00000   0.00000   2.06643
   R12        2.31978   0.00000   0.00000   0.00000   0.00000   2.31978
   R13        2.59051   0.00000   0.00000   0.00000   0.00000   2.59051
   R14        2.74129   0.00000   0.00000   0.00001   0.00001   2.74130
   R15        2.75481   0.00000   0.00000   0.00001   0.00001   2.75483
   R16        2.05048   0.00000   0.00000   0.00000   0.00000   2.05048
   R17        2.07313   0.00000   0.00000   0.00000   0.00000   2.07312
   R18        2.07688   0.00000   0.00000   0.00000   0.00000   2.07688
   R19        2.07328   0.00000   0.00000   0.00000   0.00000   2.07328
   R20        2.05552   0.00000   0.00000   0.00000   0.00000   2.05552
   R21        2.07403   0.00000   0.00000   0.00000   0.00000   2.07403
   R22        2.05896   0.00000   0.00000   0.00000   0.00000   2.05896
   R23        2.07310   0.00000   0.00000   0.00000   0.00000   2.07310
   R24        2.89028   0.00000   0.00000   0.00001   0.00001   2.89028
   R25        2.08580   0.00000   0.00000   0.00000   0.00000   2.08580
   R26        2.08565   0.00000   0.00000   0.00000   0.00000   2.08565
   R27        2.66607   0.00000   0.00000   0.00000   0.00000   2.66606
   R28        2.67193   0.00000   0.00000   0.00000   0.00000   2.67193
   R29        2.06368   0.00000   0.00000   0.00000   0.00000   2.06368
   R30        2.08034   0.00000   0.00000   0.00000   0.00000   2.08034
   R31        2.08052   0.00000   0.00000   0.00000   0.00000   2.08052
    A1        1.87013   0.00000   0.00000   0.00000   0.00000   1.87013
    A2        1.97021   0.00000   0.00000  -0.00001  -0.00001   1.97020
    A3        1.93868   0.00000   0.00000   0.00000   0.00000   1.93868
    A4        1.91080   0.00000   0.00000   0.00000   0.00000   1.91080
    A5        1.88895   0.00000   0.00000   0.00001   0.00001   1.88896
    A6        1.88359   0.00000   0.00000   0.00000   0.00000   1.88359
    A7        2.11500   0.00000   0.00000   0.00000   0.00000   2.11500
    A8        2.06582   0.00000   0.00000  -0.00001  -0.00001   2.06581
    A9        2.10177   0.00000   0.00000   0.00000   0.00000   2.10177
   A10        2.01894  -0.00014   0.00000   0.00002   0.00002   2.01896
   A11        2.14415   0.00045   0.00000  -0.00002  -0.00002   2.14414
   A12        2.02219  -0.00009   0.00000   0.00000   0.00000   2.02219
   A13        2.13003  -0.00003   0.00000  -0.00002  -0.00002   2.13001
   A14        1.86906   0.00008   0.00000  -0.00001  -0.00001   1.86905
   A15        1.92429  -0.00007   0.00000   0.00002   0.00002   1.92430
   A16        1.85818   0.00071   0.00000   0.00000   0.00000   1.85818
   A17        1.79192  -0.00068   0.00000   0.00001   0.00001   1.79193
   A18        1.87699   0.00001   0.00000   0.00001   0.00001   1.87699
   A19        2.00952   0.00000   0.00000   0.00001   0.00001   2.00953
   A20        2.14435   0.00000   0.00000   0.00001   0.00001   2.14435
   A21        2.12518   0.00000   0.00000  -0.00001  -0.00001   2.12518
   A22        2.21967   0.00000   0.00000   0.00000   0.00000   2.21966
   A23        2.05827   0.00000   0.00000  -0.00002  -0.00002   2.05825
   A24        2.00001   0.00001   0.00000   0.00002   0.00002   2.00003
   A25        1.94051   0.00000   0.00000  -0.00001  -0.00001   1.94051
   A26        1.90973   0.00000   0.00000   0.00001   0.00001   1.90974
   A27        1.94234   0.00000   0.00000   0.00000   0.00000   1.94234
   A28        1.89548   0.00000   0.00000   0.00000   0.00000   1.89548
   A29        1.89064   0.00000   0.00000  -0.00001  -0.00001   1.89062
   A30        1.88368   0.00000   0.00000   0.00001   0.00001   1.88369
   A31        1.92572   0.00000   0.00000   0.00000   0.00000   1.92572
   A32        1.89476   0.00000   0.00000   0.00002   0.00002   1.89479
   A33        1.92578   0.00000   0.00000  -0.00001  -0.00001   1.92577
   A34        1.91284   0.00000   0.00000  -0.00001  -0.00001   1.91283
   A35        1.89145   0.00000   0.00000   0.00000   0.00000   1.89145
   A36        1.91332   0.00000   0.00000   0.00000   0.00000   1.91332
   A37        1.92222   0.00000   0.00000   0.00000   0.00000   1.92222
   A38        1.91466   0.00000   0.00000   0.00000   0.00000   1.91466
   A39        1.97800   0.00000   0.00000  -0.00001  -0.00001   1.97800
   A40        1.85863   0.00000   0.00000   0.00000   0.00000   1.85863
   A41        1.89154   0.00000   0.00000   0.00000   0.00000   1.89153
   A42        1.89473   0.00000   0.00000   0.00001   0.00001   1.89474
   A43        1.92128   0.00000   0.00000   0.00000   0.00000   1.92128
   A44        1.93223   0.00000   0.00000   0.00000   0.00000   1.93223
   A45        1.86718   0.00000   0.00000   0.00001   0.00001   1.86719
   A46        1.87026   0.00000   0.00000   0.00000   0.00000   1.87026
   A47        1.93877   0.00000   0.00000   0.00000   0.00000   1.93878
   A48        1.93494   0.00000   0.00000   0.00000   0.00000   1.93494
   A49        1.97414   0.00000   0.00000   0.00000   0.00000   1.97414
   A50        1.87115   0.00000   0.00000   0.00000   0.00000   1.87115
   A51        1.94983   0.00000   0.00000   0.00000   0.00000   1.94982
   A52        1.95036   0.00000   0.00000   0.00000   0.00000   1.95036
   A53        1.90069   0.00000   0.00000   0.00000   0.00000   1.90069
   A54        1.90071   0.00000   0.00000   0.00000   0.00000   1.90071
   A55        1.89009   0.00000   0.00000   0.00000   0.00000   1.89009
    D1       -0.22636   0.00000   0.00000   0.00001   0.00001  -0.22635
    D2        2.87829   0.00000   0.00000  -0.00008  -0.00008   2.87821
    D3       -2.33129   0.00000   0.00000   0.00001   0.00001  -2.33128
    D4        0.77337   0.00000   0.00000  -0.00008  -0.00008   0.77329
    D5        1.83349   0.00000   0.00000   0.00002   0.00002   1.83351
    D6       -1.34504   0.00000   0.00000  -0.00007  -0.00007  -1.34511
    D7        2.99313   0.00025   0.00000   0.00001   0.00001   2.99314
    D8        0.33240  -0.00025   0.00000   0.00002   0.00002   0.33242
    D9       -0.18511   0.00025   0.00000  -0.00008  -0.00008  -0.18519
   D10       -2.84584  -0.00025   0.00000  -0.00007  -0.00007  -2.84591
   D11        1.02398  -0.00177   0.00000   0.00000   0.00000   1.02398
   D12       -3.11530  -0.00072   0.00000  -0.00002  -0.00002  -3.11532
   D13       -1.07821  -0.00071   0.00000  -0.00001  -0.00001  -1.07822
   D14       -2.56413  -0.00115   0.00000  -0.00001  -0.00001  -2.56415
   D15       -0.42023  -0.00011   0.00000  -0.00004  -0.00004  -0.42027
   D16        1.61686  -0.00009   0.00000  -0.00002  -0.00002   1.61683
   D17        0.00751   0.00024   0.00000   0.00004   0.00004   0.00756
   D18        2.04781   0.00024   0.00000   0.00005   0.00005   2.04786
   D19       -2.11463   0.00024   0.00000   0.00005   0.00005  -2.11457
   D20       -2.65240  -0.00024   0.00000   0.00005   0.00005  -2.65235
   D21       -0.61210  -0.00024   0.00000   0.00005   0.00005  -0.61204
   D22        1.50865  -0.00024   0.00000   0.00006   0.00006   1.50871
   D23       -2.59413   0.00050   0.00000   0.00012   0.00012  -2.59401
   D24        0.64359   0.00049   0.00000   0.00000   0.00000   0.64359
   D25        1.54009  -0.00025   0.00000   0.00015   0.00015   1.54024
   D26       -1.50537  -0.00026   0.00000   0.00003   0.00003  -1.50535
   D27       -0.42982  -0.00024   0.00000   0.00014   0.00014  -0.42969
   D28        2.80790  -0.00024   0.00000   0.00002   0.00002   2.80792
   D29       -0.07717   0.00000   0.00000   0.00015   0.00015  -0.07702
   D30       -3.10235   0.00000   0.00000   0.00011   0.00011  -3.10223
   D31       -3.11639   0.00000   0.00000   0.00003   0.00003  -3.11636
   D32        0.14162   0.00000   0.00000  -0.00002  -0.00002   0.14161
   D33        0.26222   0.00000   0.00000   0.00001   0.00001   0.26223
   D34        2.35590   0.00000   0.00000   0.00001   0.00001   2.35591
   D35       -1.84712   0.00000   0.00000   0.00003   0.00003  -1.84709
   D36       -2.99248   0.00000   0.00000   0.00005   0.00005  -2.99243
   D37       -0.89880   0.00000   0.00000   0.00005   0.00005  -0.89875
   D38        1.18137   0.00000   0.00000   0.00007   0.00007   1.18143
   D39       -2.16646   0.00000   0.00000   0.00003   0.00003  -2.16643
   D40       -0.07000   0.00000   0.00000   0.00004   0.00004  -0.06996
   D41        2.02709   0.00000   0.00000   0.00004   0.00004   2.02713
   D42        1.07709   0.00000   0.00000   0.00000   0.00000   1.07708
   D43       -3.10964   0.00000   0.00000   0.00000   0.00000  -3.10963
   D44       -1.01255   0.00000   0.00000   0.00001   0.00001  -1.01254
   D45        1.08427   0.00000   0.00000  -0.00003  -0.00003   1.08424
   D46       -0.98036   0.00000   0.00000  -0.00002  -0.00002  -0.98038
   D47       -3.09048   0.00000   0.00000  -0.00002  -0.00002  -3.09050
   D48       -1.05497   0.00000   0.00000  -0.00002  -0.00002  -1.05499
   D49       -3.11959   0.00000   0.00000  -0.00001  -0.00001  -3.11961
   D50        1.05347   0.00000   0.00000  -0.00001  -0.00001   1.05346
   D51       -3.06703   0.00000   0.00000  -0.00002  -0.00002  -3.06705
   D52        1.15153   0.00000   0.00000  -0.00002  -0.00002   1.15152
   D53       -0.95859   0.00000   0.00000  -0.00002  -0.00002  -0.95861
   D54        3.13477   0.00000   0.00000  -0.00001  -0.00001   3.13476
   D55       -1.05113   0.00000   0.00000  -0.00001  -0.00001  -1.05114
   D56        1.02637   0.00000   0.00000  -0.00001  -0.00001   1.02636
   D57       -3.13794   0.00000   0.00000  -0.00001  -0.00001  -3.13795
   D58       -1.05689   0.00000   0.00000  -0.00001  -0.00001  -1.05690
   D59        1.06387   0.00000   0.00000  -0.00001  -0.00001   1.06386
         Item               Value     Threshold  Converged?
 Maximum Force            0.000005     0.000450     YES
 RMS     Force            0.000001     0.000300     YES
 Maximum Displacement     0.000584     0.001800     YES
 RMS     Displacement     0.000120     0.001200     YES
 Predicted change in Energy=-1.232221D-09
 Optimization completed.
    -- Stationary point found.
                           ----------------------------
                           !   Optimized Parameters   !
                           ! (Angstroms and Degrees)  !
 --------------------------                            --------------------------
 ! Name  Definition              Value          Derivative Info.                !
 --------------------------------------------------------------------------------
 ! R1    R(1,2)                  1.522          -DE/DX =    0.0                 !
 ! R2    R(1,11)                 1.0897         -DE/DX =    0.0                 !
 ! R3    R(1,12)                 1.0938         -DE/DX =    0.0                 !
 ! R4    R(1,13)                 1.0955         -DE/DX =    0.0                 !
 ! R5    R(2,3)                  1.2246         -DE/DX =    0.0                 !
 ! R6    R(2,4)                  1.3845         -DE/DX =    0.0                 !
 ! R7    R(4,5)                  1.4699         -DE/DX =    0.0                 !
 ! R8    R(4,22)                 1.466          -DE/DX =    0.0                 !
 ! R9    R(5,6)                  1.5441         -DE/DX =    0.0                 !
 ! R10   R(5,14)                 1.0952         -DE/DX =    0.0                 !
 ! R11   R(5,15)                 1.0935         -DE/DX =    0.0                 !
 ! R12   R(6,7)                  1.2276         -DE/DX =    0.0                 !
 ! R13   R(6,8)                  1.3708         -DE/DX =    0.0                 !
 ! R14   R(8,9)                  1.4506         -DE/DX =    0.0                 !
 ! R15   R(8,10)                 1.4578         -DE/DX =    0.0                 !
 ! R16   R(9,16)                 1.0851         -DE/DX =    0.0                 !
 ! R17   R(9,17)                 1.0971         -DE/DX =    0.0                 !
 ! R18   R(9,18)                 1.099          -DE/DX =    0.0                 !
 ! R19   R(10,19)                1.0971         -DE/DX =    0.0                 !
 ! R20   R(10,20)                1.0877         -DE/DX =    0.0                 !
 ! R21   R(10,21)                1.0975         -DE/DX =    0.0                 !
 ! R22   R(22,23)                1.0896         -DE/DX =    0.0                 !
 ! R23   R(22,24)                1.097          -DE/DX =    0.0                 !
 ! R24   R(22,25)                1.5295         -DE/DX =    0.0                 !
 ! R25   R(25,26)                1.1038         -DE/DX =    0.0                 !
 ! R26   R(25,27)                1.1037         -DE/DX =    0.0                 !
 ! R27   R(25,28)                1.4108         -DE/DX =    0.0                 !
 ! R28   R(28,29)                1.4139         -DE/DX =    0.0                 !
 ! R29   R(29,30)                1.0921         -DE/DX =    0.0                 !
 ! R30   R(29,31)                1.1009         -DE/DX =    0.0                 !
 ! R31   R(29,32)                1.101          -DE/DX =    0.0                 !
 ! A1    A(2,1,11)             107.1504         -DE/DX =    0.0                 !
 ! A2    A(2,1,12)             112.8846         -DE/DX =    0.0                 !
 ! A3    A(2,1,13)             111.0783         -DE/DX =    0.0                 !
 ! A4    A(11,1,12)            109.4808         -DE/DX =    0.0                 !
 ! A5    A(11,1,13)            108.2291         -DE/DX =    0.0                 !
 ! A6    A(12,1,13)            107.9217         -DE/DX =    0.0                 !
 ! A7    A(1,2,3)              121.1806         -DE/DX =    0.0                 !
 ! A8    A(1,2,4)              118.3628         -DE/DX =    0.0                 !
 ! A9    A(3,2,4)              120.4225         -DE/DX =    0.0                 !
 ! A10   A(2,4,5)              115.6768         -DE/DX =   -0.0001              !
 ! A11   A(2,4,22)             122.8509         -DE/DX =    0.0005              !
 ! A12   A(5,4,22)             115.8632         -DE/DX =   -0.0001              !
 ! A13   A(4,5,6)              122.0416         -DE/DX =    0.0                 !
 ! A14   A(4,5,14)             107.0893         -DE/DX =    0.0001              !
 ! A15   A(4,5,15)             110.2535         -DE/DX =   -0.0001              !
 ! A16   A(6,5,14)             106.4658         -DE/DX =    0.0007              !
[...]
   D17        0.19995   0.00027   0.00102   0.02461   0.02563   0.22558
   D18        2.22603   0.00035   0.00134   0.02444   0.02578   2.25181
   D19       -1.91391   0.00017   0.00054   0.02246   0.02300  -1.89091
   D20       -2.43885  -0.00024   0.00051   0.01568   0.01619  -2.42266
   D21       -0.41277  -0.00016   0.00083   0.01551   0.01634  -0.39643
   D22        1.73047  -0.00034   0.00003   0.01353   0.01356   1.74403
   D23       -1.82903  -0.00277  -0.00282   0.00203  -0.00078  -1.82981
   D24        1.51625  -0.00550   0.00000   0.00000   0.00000   1.51625
   D25        2.30209  -0.00021  -0.00777   0.00324  -0.00454   2.29756
   D26       -0.63581  -0.00295  -0.00495   0.00120  -0.00375  -0.63956
   D27        0.29074  -0.00031  -0.00748   0.00298  -0.00450   0.28625
   D28       -2.64716  -0.00304  -0.00466   0.00095  -0.00371  -2.65087
   D29       -0.45030   0.00151   0.01670   0.00159   0.01828  -0.43202
   D30        3.05974   0.00148  -0.00453   0.00684   0.00231   3.06205
   D31        2.89824  -0.00124   0.01949  -0.00055   0.01894   2.91718
   D32        0.12510  -0.00127  -0.00174   0.00470   0.00297   0.12807
   D33        0.40237  -0.00005  -0.02293   0.01541  -0.00754   0.39483
   D34        2.49156  -0.00003  -0.02197   0.01432  -0.00769   2.48387
   D35       -1.70305   0.00001  -0.02221   0.01471  -0.00751  -1.71056
   D36       -3.09878   0.00002  -0.00217   0.01032   0.00816  -3.09062
   D37       -1.00959   0.00004  -0.00122   0.00922   0.00802  -1.00157
   D38        1.07899   0.00008  -0.00146   0.00961   0.00819   1.08718
   D39       -2.53078  -0.00002   0.03001  -0.01158   0.01840  -2.51239
   D40       -0.43227  -0.00001   0.02957  -0.01109   0.01844  -0.41383
   D41        1.65909  -0.00001   0.02994  -0.01140   0.01850   1.67759
   D42        0.94367   0.00000   0.01067  -0.00681   0.00389   0.94756
   D43        3.04218   0.00001   0.01023  -0.00633   0.00394   3.04612
   D44       -1.14964   0.00001   0.01060  -0.00664   0.00400  -1.14564
   D45        0.90997   0.00009   0.01314   0.00241   0.01555   0.92552
   D46       -1.15900   0.00011   0.01314   0.00277   0.01591  -1.14308
   D47        3.02388   0.00000   0.01260   0.00144   0.01404   3.03792
   D48       -1.23159   0.00005   0.01257   0.00078   0.01334  -1.21825
   D49        2.98263   0.00007   0.01256   0.00114   0.01371   2.99634
   D50        0.88232  -0.00004   0.01202  -0.00019   0.01183   0.89416
   D51        3.05295   0.00008   0.01252   0.00158   0.01410   3.06704
   D52        0.98398   0.00010   0.01251   0.00195   0.01446   0.99844
   D53       -1.11633   0.00000   0.01197   0.00062   0.01259  -1.10374
   D54        3.12568  -0.00005   0.00525  -0.00225   0.00301   3.12868
   D55       -1.05912  -0.00004   0.00510  -0.00216   0.00293  -1.05619
   D56        1.01592  -0.00009   0.00449  -0.00289   0.00159   1.01751
   D57        3.14064   0.00000   0.00042  -0.00003   0.00039   3.14104
   D58       -1.06157   0.00000   0.00041  -0.00019   0.00022  -1.06135
   D59        1.05896   0.00000   0.00024   0.00005   0.00029   1.05925
         Item               Value     Threshold  Converged?
 Maximum Force            0.000745     0.000450     NO 
 RMS     Force            0.000110     0.000300     YES
 Maximum Displacement     0.079319     0.001800     NO 
 RMS     Displacement     0.021619     0.001200     NO 
 Predicted change in Energy=-1.450500D-05
 GradGradGradGradGradGradGradGradGradGradGradGradGradGradGradGradGradGrad

                          Input orientation:                          
 ---------------------------------------------------------------------
 Center     Atomic      Atomic             Coordinates (Angstroms)
 Number     Number       Type             X           Y           Z
 ---------------------------------------------------------------------
      1          6           0        0.997461    2.985404   -0.645041
      2          6           0       -0.119810    2.142847   -0.038716
      3          8           0       -1.263062    2.564182    0.013744
      4          7           0        0.206925    0.870940    0.418130
      5          6           0       -0.836311    0.119999    1.146688
      6          6           0       -2.181126   -0.171904    0.431516
      7          8           0       -3.178591    0.465041    0.733272
      8          7           0       -2.266766   -1.309626   -0.349958
      9          6           0       -1.134742   -1.969824   -0.972597
     10          6           0       -3.562554   -1.631123   -0.936321
     11          1           0        0.520144    3.754471   -1.252137
     12          1           0        1.691527    2.409963   -1.263115
     13          1           0        1.577258    3.485589    0.138818
     14          1           0       -0.389358   -0.820312    1.475940
     15          1           0       -1.146082    0.686240    2.031442
     16          1           0       -0.209799   -1.726824   -0.456383
     17          1           0       -1.271620   -3.057171   -0.937772
     18          1           0       -1.022313   -1.677866   -2.027033
     19          1           0       -3.695928   -2.718172   -0.946615
     20          1           0       -4.340991   -1.163507   -0.337025
     21          1           0       -3.641882   -1.261374   -1.968132
     22          6           0        1.597895    0.536114    0.759561
     23          1           0        2.202018    1.442538    0.818917
     24          1           0        1.626648    0.089092    1.758709
     25          6           0        2.282093   -0.407381   -0.231770
     26          1           0        2.195042   -0.008421   -1.256373
     27          1           0        1.805289   -1.401438   -0.229257
     28          8           0        3.632691   -0.509275    0.167331
     29          6           0        4.391853   -1.371231   -0.656361
     30          1           0        5.411335   -1.378013   -0.264745
     31          1           0        3.998661   -2.399691   -0.643120
     32          1           0        4.413086   -1.023444   -1.700688
 ---------------------------------------------------------------------
                    Distance matrix (angstroms):
                    1          2          3          4          5
     1  C    0.000000
     2  C    1.525066   0.000000
     3  O    2.391943   1.219549   0.000000
     4  N    2.495243   1.390400   2.278477   0.000000
     5  C    3.844939   2.451626   2.727583   1.477515   0.000000
     6  C    4.607709   3.134998   2.916083   2.605856   1.550872
     7  O    5.068667   3.573113   2.931444   3.424294   2.403382
     8  N    5.402734   4.077482   4.018219   3.385849   2.515945
     9  C    5.404431   4.337774   4.641825   3.435715   2.991286
    10  C    6.495452   5.186620   4.877588   4.722693   3.851981
    11  H    1.089891   2.116428   2.489793   3.347036   4.561110
    12  H    1.093103   2.202600   3.222382   2.720151   4.176248
    13  H    1.095804   2.171294   2.988655   2.965168   4.262431
    14  H    4.572232   3.338735   3.788955   2.082030   1.091952
    15  H    4.128497   2.731389   2.758886   2.113649   1.095161
    16  H    4.868075   3.893186   4.443322   2.772510   2.524501
    17  H    6.461202   5.401403   5.701321   4.410739   3.824771
    18  H    5.266448   4.400655   4.713565   3.739821   3.652317
    19  H    7.392539   6.102656   5.894437   5.475082   4.540324
    20  H    6.768117   5.370227   4.846891   5.039125   4.016414
    21  H    6.427223   5.264633   4.921533   5.005430   4.413788
    22  C    2.886597   2.483817   3.585300   1.470878   2.499675
    23  H    2.444293   2.572325   3.730037   2.113706   3.329863
    24  H    3.816086   3.240179   4.185857   2.103343   2.538049
    25  C    3.651309   3.508571   4.632342   2.522459   3.450031
    26  H    3.281907   3.386619   4.493325   2.744057   3.870438
    27  H    4.479938   4.037855   5.019958   2.852645   3.344554
    28  O    4.451648   4.599726   5.782571   3.701861   4.618128
    29  C    5.522888   5.751985   6.922035   4.867801   5.727865
    30  H    6.218224   6.560573   7.756677   5.710516   6.577937
    31  H    6.164937   6.161312   7.263417   5.118647   5.738397
    32  H    5.371382   5.773621   6.930296   5.076404   6.080393
                    6          7          8          9         10
     6  C    0.000000
     7  O    1.221349   0.000000
     8  N    1.382913   2.270299   0.000000
     9  C    2.509775   3.607752   1.450868   0.000000
    10  C    2.430770   2.707189   1.458165   2.451592   0.000000
    11  H    5.054500   5.333183   5.850288   5.965262   6.765559
    12  H    4.953307   5.611269   5.507929   5.220607   6.636455
    13  H    5.252464   5.665262   6.165186   6.192877   7.331735
    14  H    2.172944   3.159670   2.664207   2.805764   4.067628
    15  H    2.089854   2.421832   3.303102   4.009870   4.474050
    16  H    2.663132   3.877277   2.101546   1.086760   3.388283
    17  H    3.320680   4.339920   2.095174   1.096481   2.698517
    18  H    3.107287   4.106199   2.120577   1.099871   2.764898
    19  H    3.267622   3.636276   2.093443   2.668402   1.095249
    20  H    2.497790   2.269114   2.079406   3.366620   1.088019
    21  H    3.013149   3.239249   2.124090   2.789040   1.098928
    22  C    3.858743   4.777088   4.424183   4.092360   5.848347
    23  H    4.687052   5.469351   5.376868   5.097814   6.764506
    24  H    4.040879   4.927797   4.643443   4.395958   6.095092
    25  C    4.518376   5.613511   4.638980   3.829467   6.012806
    26  H    4.693244   5.749677   4.735235   3.874931   5.990450
    27  H    4.223728   5.408260   4.074879   3.085353   5.419081
    28  O    5.829587   6.903851   5.975931   5.114789   7.365334
    29  C    6.769483   7.912938   6.665950   5.567905   7.963573
    30  H    7.719128   8.841930   7.678879   6.610781   9.002542
    31  H    6.656398   7.849465   6.366299   5.161896   7.605829
    32  H    6.982481   8.110075   6.821056   5.674871   8.035195
                   11         12         13         14         15
    11  H    0.000000
    12  H    1.783244   0.000000
    13  H    1.767638   1.770719   0.000000
    14  H    5.403540   4.718812   4.918970   0.000000
    15  H    4.792936   4.677323   4.339926   1.775081   0.000000
    16  H    5.586648   4.623728   5.542300   2.141934   3.590094
    17  H    7.050369   6.227009   7.216846   3.407041   4.779656
    18  H    5.699993   4.965767   6.173326   3.661537   4.698461
    19  H    7.730700   7.444637   8.214093   4.517085   5.192356
    20  H    6.975284   7.072384   7.540969   4.361197   4.386189
    21  H    6.556966   6.513142   7.362902   4.757635   5.100864
    22  C    3.945414   2.758858   3.014158   2.510432   3.028139
    23  H    3.530298   2.351887   2.242079   3.502485   3.640326
    24  H    4.870785   3.810784   3.763334   2.229631   2.849386
    25  C    4.633209   3.057756   3.973581   3.197411   4.250943
    26  H    4.118818   2.470255   3.812654   3.847574   4.738711
    27  H    5.411218   3.950771   4.906172   2.839345   4.263772
    28  O    5.466477   3.786324   4.492723   4.241000   5.266957
    29  C    6.451193   4.685866   5.669476   5.264047   6.490469
    30  H    7.158288   5.402081   6.206258   6.081862   7.247988
    31  H    7.095399   5.370292   6.411797   5.122457   6.568457
    32  H    6.179374   4.403027   5.635343   5.761571   6.910583
                   16         17         18         19         20
    16  H    0.000000
    17  H    1.768904   0.000000
    18  H    1.769044   1.775142   0.000000
    19  H    3.657348   2.447911   3.065576   0.000000
    20  H    4.171130   3.656214   3.759564   1.790165   0.000000
    21  H    3.779051   3.147169   2.653126   1.780079   1.777313
    22  C    3.141204   4.901709   4.419537   6.444065   6.273881
    23  H    4.181878   5.949747   5.313442   7.430638   7.137132
    24  H    3.402458   5.056672   4.946815   6.597676   6.447777
    25  C    2.828587   4.488730   3.969408   6.448837   6.666937
    26  H    3.062049   4.627539   3.705716   6.491704   6.700683
    27  H    2.053787   3.565223   3.362105   5.701910   6.151829
    28  O    4.078747   5.636071   5.277301   7.734906   8.016359
    29  C    4.619700   5.915784   5.593385   8.204309   8.741149
    30  H    5.635205   6.923469   6.677380   9.230558   9.754953
    31  H    4.266000   5.319301   5.257987   7.707155   8.436329
    32  H    4.838812   6.085554   5.484372   8.318464   8.860760
                   21         22         23         24         25
    21  H    0.000000
    22  C    6.174669   0.000000
    23  H    7.016406   1.090913   0.000000
    24  H    6.593217   1.094967   1.745301   0.000000
    25  C    6.231993   1.530048   2.128980   2.153625   0.000000
    26  H    6.012168   2.171887   2.532224   3.069739   1.102977
    27  H    5.719702   2.185151   3.056839   2.491104   1.102496
    28  O    7.618745   2.363043   2.506185   2.629588   1.412013
    29  C    8.140867   3.667288   3.858641   3.951134   2.358044
    30  H    9.212810   4.388099   4.407895   4.535484   3.276487
    31  H    7.837686   4.043531   4.486446   4.193956   2.661788
    32  H    8.062919   4.050969   4.161526   4.579235   2.660523
                   26         27         28         29         30
    26  H    0.000000
    27  H    1.774083   0.000000
    28  O    2.084376   2.071868   0.000000
    29  C    2.653911   2.621763   1.413422   0.000000
    30  H    3.633683   3.606296   2.026072   1.092133   0.000000
    31  H    3.057334   2.445132   2.089124   1.101138   1.783996
    32  H    2.479397   3.018045   2.088751   1.100920   1.784419
                   31         32
    31  H    0.000000
    32  H    1.784448   0.000000
 Stoichiometry    C9H18N2O3
 Framework group  C1[X(C9H18N2O3)]
 Deg. of freedom    90
 Full point group                 C1      NOp   1
 Largest Abelian subgroup         C1      NOp   1
 Largest concise Abelian subgroup C1      NOp   1
                         Standard orientation:                         
 ---------------------------------------------------------------------
 Center     Atomic      Atomic             Coordinates (Angstroms)
 Number     Number       Type             X           Y           Z
 ---------------------------------------------------------------------
      1          6           0        1.140988    2.701718   -1.037318
      2          6           0       -0.016790    2.012939   -0.322503
      3          8           0       -1.143246    2.478455   -0.363655
      4          7           0        0.253412    0.823667    0.345206
      5          6           0       -0.828495    0.242797    1.166860
      6          6           0       -2.173677   -0.114823    0.482903
      7          8           0       -3.149470    0.599304    0.654785
      8          7           0       -2.293048   -1.362769   -0.100902
      9          6           0       -1.179274   -2.158064   -0.582600
     10          6           0       -3.592193   -1.729918   -0.651964
     11          1           0        0.702686    3.375985   -1.772925
     12          1           0        1.820446    2.006642   -1.537399
     13          1           0        1.729036    3.303845   -0.335585
     14          1           0       -0.423396   -0.645309    1.656269
     15          1           0       -1.128052    0.959166    1.939166
     16          1           0       -0.252757   -1.866435   -0.095191
     17          1           0       -1.359185   -3.218771   -0.370927
     18          1           0       -1.040856   -2.049791   -1.668341
     19          1           0       -3.767966   -2.797961   -0.484758
     20          1           0       -4.359921   -1.141145   -0.154243
     21          1           0       -3.642629   -1.534248   -1.732155
     22          6           0        1.625301    0.499879    0.765399
     23          1           0        2.263647    1.380958    0.685992
     24          1           0        1.622626    0.224473    1.825162
     25          6           0        2.285635   -0.619587   -0.041943
     26          1           0        2.228530   -0.393654   -1.120020
     27          1           0        1.770202   -1.581368    0.115554
     28          8           0        3.625528   -0.702784    0.395717
     29          6           0        4.361634   -1.716754   -0.258328
     30          1           0        5.374534   -1.695421    0.149511
     31          1           0        3.928242   -2.713694   -0.082868
     32          1           0        4.410986   -1.548467   -1.345190
 ---------------------------------------------------------------------
 Rotational constants (GHZ):      0.8675226      0.3991429      0.3024600
 Standard basis: 6-31G(d,p) (6D, 7F)
 There are   300 symmetry adapted basis functions of A   symmetry.
 Integral buffers will be    131072 words long.
 Raffenetti 2 integral format.
 Two-electron integral symmetry is turned on.
   300 basis functions,   518 primitive gaussians,   300 cartesian basis functions
    55 alpha electrons       55 beta electrons
       nuclear repulsion energy       966.8663848533 Hartrees.
 NAtoms=   32 NActive=   32 NUniq=   32 SFac= 1.00D+00 NAtFMM=   60 NAOKFM=F Big=F
 One-electron integrals computed using PRISM.
 NBasis=   300 RedAO= T  NBF=   300
 NBsUse=   300 1.00D-06 NBFU=   300
 Initial guess read from the read-write file.
 B after Tr=     0.000000    0.000000    0.000000
         Rot=    1.000000    0.000000    0.000000    0.000000 Ang=   0.00 deg.
 Initial guess orbital symmetries:
       Occupied  (A) (A) (A) (A) (A) (A) (A) (A) (A) (A) (A) (A)
                 (A) (A) (A) (A) (A) (A) (A) (A) (A) (A) (A) (A)
                 (A) (A) (A) (A) (A) (A) (A) (A) (A) (A) (A) (A)
                 (A) (A) (A) (A) (A) (A) (A) (A) (A) (A) (A) (A)
                 (A) (A) (A) (A) (A) (A) (A)
       Virtual   (A) (A) (A) (A) (A) (A) (A) (A) (A) (A) (A) (A)
                 (A) (A) (A) (A) (A) (A) (A) (A) (A) (A) (A) (A)
                 (A) (A) (A) (A) (A) (A) (A) (A) (A) (A) (A) (A)
                 (A) (A) (A) (A) (A) (A) (A) (A) (A) (A) (A) (A)
                 (A) (A) (A) (A) (A) (A) (A) (A) (A) (A) (A) (A)
                 (A) (A) (A) (A) (A) (A) (A) (A) (A) (A) (A) (A)
                 (A) (A) (A) (A) (A) (A) (A) (A) (A) (A) (A) (A)
                 (A) (A) (A) (A) (A) (A) (A) (A) (A) (A) (A) (A)
                 (A) (A) (A) (A) (A) (A) (A) (A) (A) (A) (A) (A)
                 (A) (A) (A) (A) (A) (A) (A) (A) (A) (A) (A) (A)
                 (A) (A) (A) (A) (A) (A) (A) (A) (A) (A) (A) (A)
                 (A) (A) (A) (A) (A) (A) (A) (A) (A) (A) (A) (A)
                 (A) (A) (A) (A) (A) (A) (A) (A) (A) (A) (A) (A)
                 (A) (A) (A) (A) (A) (A) (A) (A) (A) (A) (A) (A)
                 (A) (A) (A) (A) (A) (A) (A) (A) (A) (A) (A) (A)
                 (A) (A) (A) (A) (A) (A) (A) (A) (A) (A) (A) (A)
                 (A) (A) (A) (A) (A) (A) (A) (A) (A) (A) (A) (A)
                 (A) (A) (A) (A) (A) (A) (A) (A) (A) (A) (A) (A)
                 (A) (A) (A) (A) (A) (A) (A) (A) (A) (A) (A) (A)
                 (A) (A) (A) (A) (A) (A) (A) (A) (A) (A) (A) (A)
                 (A) (A) (A) (A) (A)
 Harris functional with IExCor=  402 diagonalized for initial guess.
 ExpMin= 1.61D-01 ExpMax= 5.48D+03 ExpMxC= 8.25D+02 IAcc=1 IRadAn=         1 AccDes= 0.00D+00
 HarFok:  IExCor=  402 AccDes= 0.00D+00 IRadAn=         1 IDoV= 1
 ScaDFX=  1.000000  1.000000  1.000000  1.000000
 FoFCou: FMM=F IPFlag=           0 FMFlag=      100000 FMFlg1=           0
         NFxFlg=           0 DoJE=T BraDBF=F KetDBF=T FulRan=T
         Omega=  0.000000  0.000000  1.000000  0.000000  0.000000 ICntrl=     500 IOpCl=  0
         NMat0=    1 NMatS0=    1 NMatT0=    0 NMatD0=    1 NMtDS0=    0 NMtDT0=    0
         I1Cent=           4 NGrid=           0.
 Petite list used in FoFCou.
