 Entering Gaussian System, Link 0=/data/opt/apps/g09-C01/g09
 Initial command:
 /data/opt/apps/g09-C01/l1.exe /tmp/g09-tuu61186-1178324c21e64fea8x/Gau-1178459.inp -scrdir=/tmp/g09-tuu61186-1178324c21e64fea8x/
 Entering Link 1 = /data/opt/apps/g09-C01/l1.exe PID=   1178467.
  
 Copyright (c) 1988,1990,1992,1993,1995,1998,2003,2009,2011,
            Gaussian, Inc.  All Rights Reserved.
  
 This is part of the Gaussian(R) 09 program.  It is based on
 the Gaussian(R) 03 system (copyright 2003, Gaussian, Inc.),
 the Gaussian(R) 98 system (copyright 1998, Gaussian, Inc.),
 the Gaussian(R) 94 system (copyright 1995, Gaussian, Inc.),
 the Gaussian 92(TM) system (copyright 1992, Gaussian, Inc.),
 the Gaussian 90(TM) system (copyright 1990, Gaussian, Inc.),
 the Gaussian 88(TM) system (copyright 1988, Gaussian, Inc.),
 the Gaussian 86(TM) system (copyright 1986, Carnegie Mellon
 University), and the Gaussian 82(TM) system (copyright 1983,
 Carnegie Mellon University). Gaussian is a federally registered
 trademark of Gaussian, Inc.
  
 This software contains proprietary and confidential information,
 including trade secrets, belonging to Gaussian, Inc.
  
 This software is provided under written license and may be
 used, copied, transmitted, or stored only in accord with that
 written license.
  
 The following legend is applicable only to US Government
 contracts under FAR:
  
                    RESTRICTED RIGHTS LEGEND
  
 Use, reproduction and disclosure by the US Government is
 subject to restrictions as set forth in subparagraphs (a)
 and (c) of the Commercial Computer Software - Restricted
 Rights clause in FAR 52.227-19.
  
 Gaussian, Inc.
 340 Quinnipiac St., Bldg. 40, Wallingford CT 06492
  
  
 ---------------------------------------------------------------
 Warning -- This program may not be used in any manner that
 competes with the business of Gaussian, Inc. or will provide
 assistance to any competitor of Gaussian, Inc.  The licensee
 of this program is prohibited from giving any competitor of
 Gaussian, Inc. access to this program.  By using this program,
 the user acknowledges that Gaussian, Inc. is engaged in the
 business of creating and licensing software in the field of
 computational chemistry and represents and warrants to the
 licensee that it is not a competitor of Gaussian, Inc. and that
 it will not use this program in any manner prohibited above.
 ---------------------------------------------------------------
  

 Cite this work as:
 Gaussian 09, Revision C.01,
 M. J. Frisch, G. W. Trucks, H. B. Schlegel, G. E. Scuseria, 
 M. A. Robb, J. R. Cheeseman, G. Scalmani, V. Barone, B. Mennucci, 
 G. A. Petersson, H. Nakatsuji, M. Caricato, X. Li, H. P. Hratchian, 
 A. F. Izmaylov, J. Bloino, G. Zheng, J. L. Sonnenberg, M. Hada, 
 M. Ehara, K. Toyota, R. Fukuda, J. Hasegawa, M. Ishida, T. Nakajima, 
 Y. Honda, O. Kitao, H. Nakai, T. Vreven, J. A. Montgomery, Jr., 
 J. E. Peralta, F. Ogliaro, M. Bearpark, J. J. Heyd, E. Brothers, 
 K. N. Kudin, V. N. Staroverov, T. Keith, R. Kobayashi, J. Normand, 
 K. Raghavachari, A. Rendell, J. C. Burant, S. S. Iyengar, J. Tomasi, 
 M. Cossi, N. Rega, J. M. Millam, M. Klene, J. E. Knox, J. B. Cross, 
 V. Bakken, C. Adamo, J. Jaramillo, R. Gomperts, R. E. Stratmann, 
 O. Yazyev, A. J. Austin, R. Cammi, C. Pomelli, J. W. Ochterski, 
 R. L. Martin, K. Morokuma, V. G. Zakrzewski, G. A. Voth, 
 P. Salvador, J. J. Dannenberg, S. Dapprich, A. D. Daniels, 
 O. Farkas, J. B. Foresman, J. V. Ortiz, J. Cioslowski, 
 and D. J. Fox, Gaussian, Inc., Wallingford CT, 2010.
 
 ******************************************
 Gaussian 09:  EM64L-G09RevC.01 23-Sep-2011
                24-Apr-2026 
 ******************************************
 %nprocshared=8
 Will use up to    8 processors via shared memory.
 %mem=14GB
 -----------------------------------
 # opt=modredundant b3lyp/6-31g(d,p)
 -----------------------------------
 1/14=-1,18=120,19=15,26=3,38=1/1,3;
 2/9=110,12=2,17=6,18=5,40=1/2;
 3/5=1,6=6,7=101,11=2,16=1,25=1,30=1,71=1,74=-5/1,2,3;
 4//1;
 5/5=2,38=5/2;
 6/7=2,8=2,9=2,10=2,28=1/1;
 7//1,2,3,16;
 1/14=-1,18=20,19=15/3(2);
 2/9=110/2;
 99//99;
 2/9=110/2;
 3/5=1,6=6,7=101,11=2,16=1,25=1,30=1,71=1,74=-5/1,2,3;
 4/5=5,16=3/1;
 5/5=2,38=5/2;
 7//1,2,3,16;
 1/14=-1,18=20,19=15/3(-5);
 2/9=110/2;
 6/7=2,8=2,9=2,10=2,19=2,28=1/1;
 99/9=1/99;
 ---------------
 QM dihedral opt
 ---------------
 Charge =  0 Multiplicity = 1
 Symbolic Z-Matrix:
 C                     1.16964   2.87909   0.29139 
 C                     0.16191   1.91786  -0.31624 
 O                    -0.87578   2.32275  -0.82918 
 N                     0.46392   0.56901  -0.30703 
 C                    -0.62061  -0.30572  -0.71673 
 C                    -1.72692  -0.35519   0.36321 
 O                    -1.49567   0.05248   1.4964 
 N                    -2.92805  -0.91093   0.00756 
 C                    -3.27971  -1.34031  -1.3368 
 C                    -4.01891  -0.90085   0.97359 
 H                     0.89999   3.88268  -0.03656 
 H                     2.2002    2.66272  -0.00359 
 H                     1.11515   2.8455    1.38491 
 H                    -1.02487   0.0679   -1.65823 
 H                    -0.22387  -1.31226  -0.88643 
 H                    -2.39527  -1.58002  -1.92539 
 H                    -3.89062  -2.24758  -1.2766 
 H                    -3.85907  -0.57548  -1.87252 
 H                    -4.43272  -1.90942   1.09068 
 H                    -3.6288   -0.55034   1.92716 
 H                    -4.82395  -0.23157   0.64362 
 C                     1.52135  -0.022     0.51223 
 H                     1.90463   0.70729   1.22605 
 H                     1.10215  -0.83806   1.10773 
 C                     2.67764  -0.54386  -0.34061 
 H                     3.13603   0.2866   -0.90435 
 H                     2.30899  -1.27051  -1.08586 
 O                     3.61271  -1.14598   0.52994 
 C                     4.74367  -1.65822  -0.14272 
 H                     5.39824  -2.09999   0.61209 
 H                     4.46798  -2.43519  -0.87315 
 H                     5.29629  -0.86776  -0.67442 
 
 The following ModRedundant input section has been read:
 D       2       4       5       6 F                                           
 D       4       5       6       8 S  36 10.000                                

 GradGradGradGradGradGradGradGradGradGradGradGradGradGradGradGradGradGrad
 Berny optimization.
 Initialization pass.
                           ----------------------------
                           !    Initial Parameters    !
                           ! (Angstroms and Degrees)  !
 --------------------------                            --------------------------
 ! Name  Definition              Value          Derivative Info.                !
 --------------------------------------------------------------------------------
 ! R1    R(1,2)                  1.5194         estimate D2E/DX2                !
 ! R2    R(1,11)                 1.0897         estimate D2E/DX2                !
 ! R3    R(1,12)                 1.0936         estimate D2E/DX2                !
 ! R4    R(1,13)                 1.0954         estimate D2E/DX2                !
 ! R5    R(2,3)                  1.2263         estimate D2E/DX2                !
 ! R6    R(2,4)                  1.3823         estimate D2E/DX2                !
 ! R7    R(4,5)                  1.4523         estimate D2E/DX2                !
 ! R8    R(4,22)                 1.4624         estimate D2E/DX2                !
 ! R9    R(5,6)                  1.5468         estimate D2E/DX2                !
 ! R10   R(5,14)                 1.0906         estimate D2E/DX2                !
 ! R11   R(5,15)                 1.0951         estimate D2E/DX2                !
 ! R12   R(6,7)                  1.2263         estimate D2E/DX2                !
 ! R13   R(6,8)                  1.3704         estimate D2E/DX2                !
 ! R14   R(8,9)                  1.4544         estimate D2E/DX2                !
 ! R15   R(8,10)                 1.4571         estimate D2E/DX2                !
 ! R16   R(9,16)                 1.0891         estimate D2E/DX2                !
 ! R17   R(9,17)                 1.0954         estimate D2E/DX2                !
 ! R18   R(9,18)                 1.0989         estimate D2E/DX2                !
 ! R19   R(10,19)                1.0964         estimate D2E/DX2                !
 ! R20   R(10,20)                1.0883         estimate D2E/DX2                !
 ! R21   R(10,21)                1.0977         estimate D2E/DX2                !
 ! R22   R(22,23)                1.0901         estimate D2E/DX2                !
 ! R23   R(22,24)                1.0938         estimate D2E/DX2                !
 ! R24   R(22,25)                1.5286         estimate D2E/DX2                !
 ! R25   R(25,26)                1.1034         estimate D2E/DX2                !
 ! R26   R(25,27)                1.1042         estimate D2E/DX2                !
 ! R27   R(25,28)                1.4124         estimate D2E/DX2                !
 ! R28   R(28,29)                1.4121         estimate D2E/DX2                !
 ! R29   R(29,30)                1.0924         estimate D2E/DX2                !
 ! R30   R(29,31)                1.1015         estimate D2E/DX2                !
 ! R31   R(29,32)                1.1013         estimate D2E/DX2                !
 ! A1    A(2,1,11)             107.3471         estimate D2E/DX2                !
 ! A2    A(2,1,12)             113.0775         estimate D2E/DX2                !
 ! A3    A(2,1,13)             110.2932         estimate D2E/DX2                !
 ! A4    A(11,1,12)            109.5269         estimate D2E/DX2                !
 ! A5    A(11,1,13)            108.4432         estimate D2E/DX2                !
 ! A6    A(12,1,13)            108.0646         estimate D2E/DX2                !
 ! A7    A(1,2,3)              121.3063         estimate D2E/DX2                !
 ! A8    A(1,2,4)              118.0181         estimate D2E/DX2                !
 ! A9    A(3,2,4)              120.6539         estimate D2E/DX2                !
 ! A10   A(2,4,5)              115.0054         estimate D2E/DX2                !
 ! A11   A(2,4,22)             123.785          estimate D2E/DX2                !
 ! A12   A(5,4,22)             117.0383         estimate D2E/DX2                !
 ! A13   A(4,5,6)              110.8793         estimate D2E/DX2                !
 ! A14   A(4,5,14)             108.3005         estimate D2E/DX2                !
 ! A15   A(4,5,15)             109.0726         estimate D2E/DX2                !
 ! A16   A(6,5,14)             110.3985         estimate D2E/DX2                !
 ! A17   A(6,5,15)             109.7488         estimate D2E/DX2                !
 ! A18   A(14,5,15)            108.3838         estimate D2E/DX2                !
 ! A19   A(5,6,7)              119.9772         estimate D2E/DX2                !
 ! A20   A(5,6,8)              117.2996         estimate D2E/DX2                !
 ! A21   A(7,6,8)              122.6781         estimate D2E/DX2                !
 ! A22   A(6,8,9)              124.8566         estimate D2E/DX2                !
 ! A23   A(6,8,10)             118.7696         estimate D2E/DX2                !
 ! A24   A(9,8,10)             115.7104         estimate D2E/DX2                !
 ! A25   A(8,9,16)             111.6028         estimate D2E/DX2                !
 ! A26   A(8,9,17)             109.1813         estimate D2E/DX2                !
 ! A27   A(8,9,18)             111.8766         estimate D2E/DX2                !
 ! A28   A(16,9,17)            107.475          estimate D2E/DX2                !
 ! A29   A(16,9,18)            108.5339         estimate D2E/DX2                !
 ! A30   A(17,9,18)            108.0117         estimate D2E/DX2                !
 ! A31   A(8,10,19)            110.3026         estimate D2E/DX2                !
 ! A32   A(8,10,20)            108.3469         estimate D2E/DX2                !
 ! A33   A(8,10,21)            110.7304         estimate D2E/DX2                !
 ! A34   A(19,10,20)           109.7539         estimate D2E/DX2                !
 ! A35   A(19,10,21)           108.4314         estimate D2E/DX2                !
 ! A36   A(20,10,21)           109.2642         estimate D2E/DX2                !
 ! A37   A(4,22,23)            110.5302         estimate D2E/DX2                !
 ! A38   A(4,22,24)            109.2327         estimate D2E/DX2                !
 ! A39   A(4,22,25)            111.8617         estimate D2E/DX2                !
 ! A40   A(23,22,24)           106.1047         estimate D2E/DX2                !
 ! A41   A(23,22,25)           109.1338         estimate D2E/DX2                !
 ! A42   A(24,22,25)           109.8135         estimate D2E/DX2                !
 ! A43   A(22,25,26)           110.0196         estimate D2E/DX2                !
 ! A44   A(22,25,27)           110.4057         estimate D2E/DX2                !
 ! A45   A(22,25,28)           107.605          estimate D2E/DX2                !
 ! A46   A(26,25,27)           106.8073         estimate D2E/DX2                !
 ! A47   A(26,25,28)           111.1442         estimate D2E/DX2                !
 ! A48   A(27,25,28)           110.8839         estimate D2E/DX2                !
 ! A49   A(25,28,29)           113.0351         estimate D2E/DX2                !
 ! A50   A(28,29,30)           107.3053         estimate D2E/DX2                !
 ! A51   A(28,29,31)           111.797          estimate D2E/DX2                !
 ! A52   A(28,29,32)           111.8082         estimate D2E/DX2                !
 ! A53   A(30,29,31)           108.8399         estimate D2E/DX2                !
 ! A54   A(30,29,32)           108.8548         estimate D2E/DX2                !
 ! A55   A(31,29,32)           108.1632         estimate D2E/DX2                !
 ! D1    D(11,1,2,3)           -13.112          estimate D2E/DX2                !
 ! D2    D(11,1,2,4)           165.2067         estimate D2E/DX2                !
 ! D3    D(12,1,2,3)          -134.0246         estimate D2E/DX2                !
 ! D4    D(12,1,2,4)            44.2942         estimate D2E/DX2                !
 ! D5    D(13,1,2,3)           104.8496         estimate D2E/DX2                !
 ! D6    D(13,1,2,4)           -76.8316         estimate D2E/DX2                !
 ! D7    D(1,2,4,5)            171.1596         estimate D2E/DX2                !
 ! D8    D(1,2,4,22)            14.871          estimate D2E/DX2                !
 ! D9    D(3,2,4,5)            -10.5102         estimate D2E/DX2                !
 ! D10   D(3,2,4,22)          -166.7988         estimate D2E/DX2                !
 ! D11   D(2,4,5,6)            -71.3302         Frozen                          !
 ! D12   D(2,4,5,14)            49.9399         estimate D2E/DX2                !
 ! D13   D(2,4,5,15)           167.7034         estimate D2E/DX2                !
 ! D14   D(22,4,5,6)            86.631          estimate D2E/DX2                !
 ! D15   D(22,4,5,14)         -152.0989         estimate D2E/DX2                !
 ! D16   D(22,4,5,15)          -34.3354         estimate D2E/DX2                !
 ! D17   D(2,4,22,23)            9.9354         estimate D2E/DX2                !
 ! D18   D(2,4,22,24)          126.3181         estimate D2E/DX2                !
 ! D19   D(2,4,22,25)         -111.893          estimate D2E/DX2                !
 ! D20   D(5,4,22,23)         -145.9127         estimate D2E/DX2                !
 ! D21   D(5,4,22,24)          -29.53           estimate D2E/DX2                !
 ! D22   D(5,4,22,25)           92.2589         estimate D2E/DX2                !
 ! D23   D(4,5,6,7)            -15.5236         estimate D2E/DX2                !
 ! D24   D(4,5,6,8)            166.8545         Scan                            !
 ! D25   D(14,5,6,7)          -135.5502         estimate D2E/DX2                !
 ! D26   D(14,5,6,8)            46.8279         estimate D2E/DX2                !
 ! D27   D(15,5,6,7)           105.0426         estimate D2E/DX2                !
 ! D28   D(15,5,6,8)           -72.5793         estimate D2E/DX2                !
 ! D29   D(5,6,8,9)             -6.0768         estimate D2E/DX2                !
 ! D30   D(5,6,8,10)          -176.3209         estimate D2E/DX2                !
 ! D31   D(7,6,8,9)            176.3705         estimate D2E/DX2                !
 ! D32   D(7,6,8,10)             6.1264         estimate D2E/DX2                !
 ! D33   D(6,8,9,16)            24.7848         estimate D2E/DX2                !
 ! D34   D(6,8,9,17)           143.4514         estimate D2E/DX2                !
 ! D35   D(6,8,9,18)           -97.0456         estimate D2E/DX2                !
 ! D36   D(10,8,9,16)         -164.704          estimate D2E/DX2                !
 ! D37   D(10,8,9,17)          -46.0374         estimate D2E/DX2                !
 ! D38   D(10,8,9,18)           73.4656         estimate D2E/DX2                !
 ! D39   D(6,8,10,19)         -128.2632         estimate D2E/DX2                !
 ! D40   D(6,8,10,20)           -8.1071         estimate D2E/DX2                !
 ! D41   D(6,8,10,21)          111.7056         estimate D2E/DX2                !
 ! D42   D(9,8,10,19)           60.6145         estimate D2E/DX2                !
 ! D43   D(9,8,10,20)         -179.2294         estimate D2E/DX2                !
 ! D44   D(9,8,10,21)          -59.4166         estimate D2E/DX2                !
 ! D45   D(4,22,25,26)          61.3977         estimate D2E/DX2                !
 ! D46   D(4,22,25,27)         -56.2413         estimate D2E/DX2                !
 ! D47   D(4,22,25,28)        -177.3777         estimate D2E/DX2                !
 ! D48   D(23,22,25,26)        -61.2296         estimate D2E/DX2                !
 ! D49   D(23,22,25,27)       -178.8686         estimate D2E/DX2                !
 ! D50   D(23,22,25,28)         59.995          estimate D2E/DX2                !
 ! D51   D(24,22,25,26)       -177.1479         estimate D2E/DX2                !
 ! D52   D(24,22,25,27)         65.2131         estimate D2E/DX2                !
 ! D53   D(24,22,25,28)        -55.9233         estimate D2E/DX2                !
 ! D54   D(22,25,28,29)       -179.3493         estimate D2E/DX2                !
 ! D55   D(26,25,28,29)        -58.8312         estimate D2E/DX2                !
 ! D56   D(27,25,28,29)         59.8143         estimate D2E/DX2                !
 ! D57   D(25,28,29,30)       -179.9003         estimate D2E/DX2                !
 ! D58   D(25,28,29,31)        -60.6334         estimate D2E/DX2                !
 ! D59   D(25,28,29,32)         60.8081         estimate D2E/DX2                !
 --------------------------------------------------------------------------------
 Trust Radius=3.00D-01 FncErr=1.00D-07 GrdErr=1.00D-06
 Number of optimizations in scan=  37
 Number of steps in this run=    155 maximum allowed number of steps=    192.
 GradGradGradGradGradGradGradGradGradGradGradGradGradGradGradGradGradGrad

                          Input orientation:                          
 ---------------------------------------------------------------------
 Center     Atomic      Atomic             Coordinates (Angstroms)
 Number     Number       Type             X           Y           Z
 ---------------------------------------------------------------------
      1          6           0        1.169644    2.879091    0.291385
      2          6           0        0.161911    1.917864   -0.316242
      3          8           0       -0.875775    2.322752   -0.829178
      4          7           0        0.463919    0.569011   -0.307030
      5          6           0       -0.620606   -0.305722   -0.716731
      6          6           0       -1.726923   -0.355187    0.363213
      7          8           0       -1.495669    0.052484    1.496398
      8          7           0       -2.928051   -0.910926    0.007558
      9          6           0       -3.279710   -1.340306   -1.336799
     10          6           0       -4.018910   -0.900847    0.973585
     11          1           0        0.899991    3.882682   -0.036557
     12          1           0        2.200205    2.662715   -0.003589
     13          1           0        1.115151    2.845499    1.384908
     14          1           0       -1.024875    0.067902   -1.658229
     15          1           0       -0.223872   -1.312264   -0.886432
     16          1           0       -2.395273   -1.580022   -1.925386
     17          1           0       -3.890623   -2.247585   -1.276598
     18          1           0       -3.859066   -0.575479   -1.872519
     19          1           0       -4.432718   -1.909416    1.090675
     20          1           0       -3.628797   -0.550342    1.927162
     21          1           0       -4.823948   -0.231568    0.643616
     22          6           0        1.521348   -0.022001    0.512230
     23          1           0        1.904626    0.707290    1.226052
     24          1           0        1.102145   -0.838059    1.107727
     25          6           0        2.677635   -0.543858   -0.340613
     26          1           0        3.136034    0.286596   -0.904348
     27          1           0        2.308991   -1.270511   -1.085856
     28          8           0        3.612705   -1.145982    0.529940
     29          6           0        4.743670   -1.658222   -0.142716
     30          1           0        5.398236   -2.099988    0.612094
     31          1           0        4.467980   -2.435191   -0.873148
     32          1           0        5.296290   -0.867761   -0.674417
 ---------------------------------------------------------------------
                    Distance matrix (angstroms):
                    1          2          3          4          5
     1  C    0.000000
     2  C    1.519439   0.000000
     3  O    2.397689   1.226307   0.000000
     4  N    2.488497   1.382280   2.267824   0.000000
     5  C    3.790030   2.391037   2.643224   1.452311   0.000000
     6  C    4.342328   3.032509   3.052475   2.470457   1.546824
     7  O    4.067635   3.084295   3.308578   2.712773   2.406655
     8  N    5.588908   4.201757   3.920285   3.714114   2.493024
     9  C    6.344371   4.847882   4.410734   4.326739   2.919877
    10  C    6.455573   5.204618   4.849829   4.888375   3.841850
    11  H    1.089703   2.117427   2.492985   3.353167   4.507503
    12  H    1.093565   2.192532   3.202940   2.736853   4.156581
    13  H    1.095395   2.159418   3.023116   2.910181   4.166525
    14  H    4.064442   2.575218   2.407053   2.072042   1.090618
    15  H    4.571280   3.302676   3.693453   2.085176   1.095136
    16  H    6.124247   4.622093   4.329225   3.925863   2.496824
    17  H    7.372088   5.890355   5.493403   5.275918   3.844125
    18  H    6.473365   4.980664   4.288161   4.738018   3.449092
    19  H    7.413172   6.143135   5.852258   5.663324   4.513397
    20  H    6.120606   5.049195   4.840579   4.795299   4.012384
    21  H    6.761909   5.513635   4.927651   5.431960   4.418611
    22  C    2.930666   2.509484   3.611570   1.462408   2.485721
    23  H    2.475989   2.623207   3.816323   2.108340   3.343261
    24  H    3.806333   3.241425   4.201725   2.094926   2.565132
    25  C    3.793420   3.519877   4.591609   2.477931   3.328148
    26  H    3.466626   3.442719   4.499577   2.752589   3.807674
    27  H    4.518197   3.920203   4.808342   2.719320   3.106382
    28  O    4.714517   4.691605   5.833161   3.681925   4.492343
    29  C    5.792177   5.814724   6.920805   4.827405   5.561853
    30  H    6.540265   6.665136   7.810321   5.684701   6.419628
    31  H    6.362134   6.148289   7.155115   5.037680   5.518407
    32  H    5.656932   5.852337   6.949655   5.054809   5.943680
                    6          7          8          9         10
     6  C    0.000000
     7  O    1.226288   0.000000
     8  N    1.370418   2.279588   0.000000
     9  C    2.504326   3.626248   1.454416   0.000000
    10  C    2.433825   2.747530   1.457149   2.465241   0.000000
    11  H    5.002002   4.770697   6.134699   6.814700   6.935281
    12  H    4.966348   4.766839   6.250603   6.916003   7.234033
    13  H    4.400640   3.824885   5.688172   6.651575   6.368899
    14  H    2.181308   3.189601   2.712016   2.677807   4.102337
    15  H    2.176412   3.026200   2.876260   3.088974   4.246321
    16  H    2.680410   3.896533   2.113721   1.089095   3.391387
    17  H    3.309343   4.326156   2.088602   1.095442   2.625545
    18  H    3.097267   4.162882   2.124618   1.098913   2.869098
    19  H    3.204084   3.555266   2.105742   2.746988   1.096430
    20  H    2.470050   2.258139   2.075077   3.376292   1.088279
    21  H    3.112149   3.447516   2.111995   2.745180   1.097679
    22  C    3.268713   3.174354   4.565308   5.311026   5.628470
    23  H    3.880914   3.473307   5.240049   6.134998   6.143136
    24  H    2.964978   2.773584   4.178296   5.042679   5.123196
    25  C    4.464426   4.598554   5.628470   6.092346   6.833613
    26  H    5.066256   5.222170   6.248100   6.632918   7.491988
    27  H    4.384771   4.784745   5.362039   5.594767   6.664854
    28  O    5.400443   5.335339   6.565792   7.143379   7.648429
    29  C    6.619852   6.674021   7.709497   8.117976   8.865808
    30  H    7.339902   7.276060   8.432460   8.926480   9.500066
    31  H    6.650701   6.882469   7.602651   7.838396   8.819974
    32  H    7.117930   7.189575   8.252681   8.614512   9.459913
                   11         12         13         14         15
    11  H    0.000000
    12  H    1.783245   0.000000
    13  H    1.772739   1.771631   0.000000
    14  H    4.570282   4.457805   4.642784   0.000000
    15  H    5.382641   4.738778   4.923308   1.772607   0.000000
    16  H    6.653388   6.543129   6.547241   2.159865   2.422004
    17  H    7.878316   7.926524   7.621082   3.704002   3.804224
    18  H    6.774554   7.119941   6.859793   2.914189   3.837949
    19  H    7.953417   8.130035   7.312636   4.804129   4.688276
    20  H    6.634592   6.930281   5.859251   4.474110   4.482226
    21  H    7.081890   7.624597   6.729840   4.452093   4.966855
    22  C    3.991717   2.816845   3.024751   3.346973   2.582020
    23  H    3.561824   2.328749   2.284829   4.160513   3.615479
    24  H    4.861651   3.833559   3.693995   3.604926   2.441283
    25  C    4.779825   3.259392   4.111754   3.977303   3.050755
    26  H    4.322590   2.707967   3.984049   4.234304   3.720973
    27  H    5.444420   4.080858   4.946864   3.637805   2.541045
    28  O    5.741707   4.097070   4.785464   5.269606   4.093053
    29  C    6.744387   5.015881   5.981913   6.209058   5.034806
    30  H    7.513142   5.769732   6.587860   7.149159   5.871472
    31  H    7.303831   5.646909   6.650261   6.087141   4.824377
    32  H    6.503923   4.743418   5.959114   6.465329   5.542086
                   16         17         18         19         20
    16  H    0.000000
    17  H    1.761431   0.000000
    18  H    1.776117   1.775403   0.000000
    19  H    3.654628   2.451980   3.299846   0.000000
    20  H    4.174200   3.635005   3.806735   1.786920   0.000000
    21  H    3.783723   2.936434   2.716654   1.779915   1.782552
    22  C    4.869222   6.119033   5.911195   6.272785   5.367045
    23  H    5.801077   6.969896   6.668342   6.857653   5.717689
    24  H    4.688520   5.709597   5.793482   5.637624   4.809997
    25  C    5.414752   6.849873   6.713881   7.380410   6.701786
    26  H    5.926393   7.478941   7.114208   8.129489   7.381115
    27  H    4.788602   6.279034   6.256743   7.113095   6.697331
    28  O    6.504830   7.795963   7.869221   8.100993   7.399079
    29  C    7.358569   8.728348   8.841471   9.262313   8.695401
    30  H    8.212670   9.480076   9.705414   9.844441   9.253007
    31  H    6.995910   8.370437   8.590516   9.129921   8.772240
    32  H    7.825112   9.309453   9.238042   9.942545   9.301943
                   21         22         23         24         25
    21  H    0.000000
    22  C    6.350115   0.000000
    23  H    6.818680   1.090096   0.000000
    24  H    5.975099   1.093754   1.745302   0.000000
    25  C    7.572317   1.528619   2.148803   2.160188   0.000000
    26  H    8.125638   2.170054   2.496388   3.074085   1.103440
    27  H    7.412779   2.175555   3.069222   2.540728   1.104224
    28  O    8.486824   2.374325   2.614713   2.594526   1.412364
    29  C    9.705306   3.672810   3.940729   3.936620   2.355732
    30  H   10.391585   4.399803   4.523612   4.504943   3.275799
    31  H    9.669356   4.052826   4.566466   4.219424   2.658208
    32  H   10.225516   4.046434   4.194753   4.557167   2.659641
                   26         27         28         29         30
    26  H    0.000000
    27  H    1.772435   0.000000
    28  O    2.082469   2.079898   0.000000
    29  C    2.635696   2.639601   1.412069   0.000000
    30  H    3.621179   3.621395   2.026079   1.092407   0.000000
    31  H    3.030376   2.462307   2.088591   1.101461   1.784287
    32  H    2.460105   3.042276   2.088622   1.101328   1.784345
                   31         32
    31  H    0.000000
    32  H    1.783936   0.000000
 Stoichiometry    C9H18N2O3
 Framework group  C1[X(C9H18N2O3)]
 Deg. of freedom    90
 Full point group                 C1      NOp   1
 Largest Abelian subgroup         C1      NOp   1
 Largest concise Abelian subgroup C1      NOp   1
                         Standard orientation:                         
 ---------------------------------------------------------------------
 Center     Atomic      Atomic             Coordinates (Angstroms)
 Number     Number       Type             X           Y           Z
 ---------------------------------------------------------------------
      1          6           0        1.169644    2.879091    0.291385
      2          6           0        0.161911    1.917864   -0.316242
      3          8           0       -0.875775    2.322752   -0.829178
      4          7           0        0.463919    0.569011   -0.307030
      5          6           0       -0.620606   -0.305722   -0.716731
      6          6           0       -1.726923   -0.355187    0.363213
      7          8           0       -1.495669    0.052484    1.496398
      8          7           0       -2.928051   -0.910926    0.007558
      9          6           0       -3.279710   -1.340306   -1.336799
     10          6           0       -4.018910   -0.900847    0.973585
     11          1           0        0.899991    3.882682   -0.036557
     12          1           0        2.200205    2.662715   -0.003589
     13          1           0        1.115151    2.845499    1.384908
     14          1           0       -1.024875    0.067902   -1.658229
     15          1           0       -0.223872   -1.312264   -0.886432
     16          1           0       -2.395273   -1.580022   -1.925386
     17          1           0       -3.890623   -2.247585   -1.276598
     18          1           0       -3.859066   -0.575479   -1.872519
     19          1           0       -4.432718   -1.909416    1.090675
     20          1           0       -3.628797   -0.550342    1.927162
     21          1           0       -4.823948   -0.231568    0.643616
     22          6           0        1.521348   -0.022001    0.512230
     23          1           0        1.904626    0.707290    1.226052
     24          1           0        1.102145   -0.838059    1.107727
     25          6           0        2.677635   -0.543858   -0.340613
     26          1           0        3.136034    0.286596   -0.904348
     27          1           0        2.308991   -1.270511   -1.085856
     28          8           0        3.612705   -1.145982    0.529940
     29          6           0        4.743670   -1.658222   -0.142716
     30          1           0        5.398236   -2.099988    0.612094
     31          1           0        4.467980   -2.435191   -0.873148
     32          1           0        5.296290   -0.867761   -0.674417
 ---------------------------------------------------------------------
 Rotational constants (GHZ):      0.9682924      0.3442172      0.2907057
 Standard basis: 6-31G(d,p) (6D, 7F)
 There are   300 symmetry adapted basis functions of A   symmetry.
 Integral buffers will be    131072 words long.
 Raffenetti 2 integral format.
 Two-electron integral symmetry is turned on.
   300 basis functions,   518 primitive gaussians,   300 cartesian basis functions
    55 alpha electrons       55 beta electrons
       nuclear repulsion energy       961.9465859187 Hartrees.
 NAtoms=   32 NActive=   32 NUniq=   32 SFac= 1.00D+00 NAtFMM=   60 NAOKFM=F Big=F
 One-electron integrals computed using PRISM.
 NBasis=   300 RedAO= T  NBF=   300
 NBsUse=   300 1.00D-06 NBFU=   300
 Harris functional with IExCor=  402 diagonalized for initial guess.
 ExpMin= 1.61D-01 ExpMax= 5.48D+03 ExpMxC= 8.25D+02 IAcc=1 IRadAn=         1 AccDes= 0.00D+00
 HarFok:  IExCor=  402 AccDes= 0.00D+00 IRadAn=         1 IDoV= 1
 ScaDFX=  1.000000  1.000000  1.000000  1.000000
 FoFCou: FMM=F IPFlag=           0 FMFlag=      100000 FMFlg1=           0
         NFxFlg=           0 DoJE=T BraDBF=F KetDBF=T FulRan=T
         Omega=  0.000000  0.000000  1.000000  0.000000  0.000000 ICntrl=     500 IOpCl=  0
         NMat0=    1 NMatS0=    1 NMatT0=    0 NMatD0=    1 NMtDS0=    0 NMtDT0=    0
         I1Cent=           4 NGrid=           0.
 Petite list used in FoFCou.
 Initial guess orbital symmetries:
       Occupied  (A) (A) (A) (A) (A) (A) (A) (A) (A) (A) (A) (A)
                 (A) (A) (A) (A) (A) (A) (A) (A) (A) (A) (A) (A)
                 (A) (A) (A) (A) (A) (A) (A) (A) (A) (A) (A) (A)
                 (A) (A) (A) (A) (A) (A) (A) (A) (A) (A) (A) (A)
                 (A) (A) (A) (A) (A) (A) (A)
       Virtual   (A) (A) (A) (A) (A) (A) (A) (A) (A) (A) (A) (A)
                 (A) (A) (A) (A) (A) (A) (A) (A) (A) (A) (A) (A)
                 (A) (A) (A) (A) (A) (A) (A) (A) (A) (A) (A) (A)
                 (A) (A) (A) (A) (A) (A) (A) (A) (A) (A) (A) (A)
                 (A) (A) (A) (A) (A) (A) (A) (A) (A) (A) (A) (A)
                 (A) (A) (A) (A) (A) (A) (A) (A) (A) (A) (A) (A)
                 (A) (A) (A) (A) (A) (A) (A) (A) (A) (A) (A) (A)
                 (A) (A) (A) (A) (A) (A) (A) (A) (A) (A) (A) (A)
                 (A) (A) (A) (A) (A) (A) (A) (A) (A) (A) (A) (A)
                 (A) (A) (A) (A) (A) (A) (A) (A) (A) (A) (A) (A)
                 (A) (A) (A) (A) (A) (A) (A) (A) (A) (A) (A) (A)
                 (A) (A) (A) (A) (A) (A) (A) (A) (A) (A) (A) (A)
                 (A) (A) (A) (A) (A) (A) (A) (A) (A) (A) (A) (A)
                 (A) (A) (A) (A) (A) (A) (A) (A) (A) (A) (A) (A)
                 (A) (A) (A) (A) (A) (A) (A) (A) (A) (A) (A) (A)
                 (A) (A) (A) (A) (A) (A) (A) (A) (A) (A) (A) (A)
                 (A) (A) (A) (A) (A) (A) (A) (A) (A) (A) (A) (A)
                 (A) (A) (A) (A) (A) (A) (A) (A) (A) (A) (A) (A)
                 (A) (A) (A) (A) (A) (A) (A) (A) (A) (A) (A) (A)
                 (A) (A) (A) (A) (A) (A) (A) (A) (A) (A) (A) (A)
                 (A) (A) (A) (A) (A)
 The electronic state of the initial guess is 1-A.
 Requested convergence on RMS density matrix=1.00D-08 within 128 cycles.
 Requested convergence on MAX density matrix=1.00D-06.
 Requested convergence on             energy=1.00D-06.
 No special actions if energy rises.
 Keep R1 ints in memory in canonical form, NReq=1033484943.
 Integral accuracy reduced to 1.0D-05 until final iterations.
 Initial convergence to 1.0D-05 achieved.  Increase integral accuracy.
 SCF Done:  E(RB3LYP) =  -688.996784398     A.U. after   14 cycles
             Convg  =    0.7099D-08             -V/T =  2.0093

 **********************************************************************

            Population analysis using the SCF density.

 **********************************************************************

 Orbital symmetries:
       Occupied  (A) (A) (A) (A) (A) (A) (A) (A) (A) (A) (A) (A)
                 (A) (A) (A) (A) (A) (A) (A) (A) (A) (A) (A) (A)
                 (A) (A) (A) (A) (A) (A) (A) (A) (A) (A) (A) (A)
                 (A) (A) (A) (A) (A) (A) (A) (A) (A) (A) (A) (A)
                 (A) (A) (A) (A) (A) (A) (A)
       Virtual   (A) (A) (A) (A) (A) (A) (A) (A) (A) (A) (A) (A)
                 (A) (A) (A) (A) (A) (A) (A) (A) (A) (A) (A) (A)
                 (A) (A) (A) (A) (A) (A) (A) (A) (A) (A) (A) (A)
                 (A) (A) (A) (A) (A) (A) (A) (A) (A) (A) (A) (A)
                 (A) (A) (A) (A) (A) (A) (A) (A) (A) (A) (A) (A)
                 (A) (A) (A) (A) (A) (A) (A) (A) (A) (A) (A) (A)
                 (A) (A) (A) (A) (A) (A) (A) (A) (A) (A) (A) (A)
                 (A) (A) (A) (A) (A) (A) (A) (A) (A) (A) (A) (A)
                 (A) (A) (A) (A) (A) (A) (A) (A) (A) (A) (A) (A)
                 (A) (A) (A) (A) (A) (A) (A) (A) (A) (A) (A) (A)
                 (A) (A) (A) (A) (A) (A) (A) (A) (A) (A) (A) (A)
                 (A) (A) (A) (A) (A) (A) (A) (A) (A) (A) (A) (A)
                 (A) (A) (A) (A) (A) (A) (A) (A) (A) (A) (A) (A)
                 (A) (A) (A) (A) (A) (A) (A) (A) (A) (A) (A) (A)
                 (A) (A) (A) (A) (A) (A) (A) (A) (A) (A) (A) (A)
                 (A) (A) (A) (A) (A) (A) (A) (A) (A) (A) (A) (A)
                 (A) (A) (A) (A) (A) (A) (A) (A) (A) (A) (A) (A)
                 (A) (A) (A) (A) (A) (A) (A) (A) (A) (A) (A) (A)
                 (A) (A) (A) (A) (A) (A) (A) (A) (A) (A) (A) (A)
                 (A) (A) (A) (A) (A) (A) (A) (A) (A) (A) (A) (A)
                 (A) (A) (A) (A) (A)
 The electronic state is 1-A.
 Alpha  occ. eigenvalues --  -19.15412 -19.10630 -19.10190 -14.36500 -14.35723
 Alpha  occ. eigenvalues --  -10.28132 -10.27758 -10.23656 -10.23241 -10.22832
 Alpha  occ. eigenvalues --  -10.22641 -10.21925 -10.21087 -10.18338  -1.03821
 Alpha  occ. eigenvalues --   -1.03214  -1.01901  -0.93178  -0.92576  -0.76979
 Alpha  occ. eigenvalues --   -0.75042  -0.72711  -0.71267  -0.68296  -0.66679
 Alpha  occ. eigenvalues --   -0.62021  -0.56253  -0.53076  -0.50573  -0.50150
 Alpha  occ. eigenvalues --   -0.49405  -0.47988  -0.47018  -0.46912  -0.45988
 Alpha  occ. eigenvalues --   -0.44895  -0.43201  -0.42286  -0.41443  -0.40702
 Alpha  occ. eigenvalues --   -0.40625  -0.40175  -0.38941  -0.38433  -0.38090
 Alpha  occ. eigenvalues --   -0.37183  -0.35797  -0.35470  -0.33840  -0.32421
 Alpha  occ. eigenvalues --   -0.26115  -0.25325  -0.24254  -0.23740  -0.23117
 Alpha virt. eigenvalues --    0.02846   0.03481   0.07716   0.08733   0.09471
 Alpha virt. eigenvalues --    0.10867   0.11911   0.13131   0.14049   0.14319
 Alpha virt. eigenvalues --    0.14563   0.15900   0.16082   0.16252   0.16382
 Alpha virt. eigenvalues --    0.16835   0.17274   0.17846   0.18002   0.19060
 Alpha virt. eigenvalues --    0.19797   0.20606   0.21824   0.22167   0.23150
 Alpha virt. eigenvalues --    0.24337   0.26292   0.27836   0.28986   0.33209
 Alpha virt. eigenvalues --    0.36371   0.38820   0.39835   0.48820   0.49460
 Alpha virt. eigenvalues --    0.49788   0.50370   0.50871   0.52221   0.53502
 Alpha virt. eigenvalues --    0.54771   0.55988   0.56290   0.57269   0.57399
 Alpha virt. eigenvalues --    0.59386   0.60349   0.62187   0.64108   0.64411
 Alpha virt. eigenvalues --    0.65074   0.68081   0.68946   0.70577   0.71342
 Alpha virt. eigenvalues --    0.72271   0.74570   0.74892   0.77206   0.77683
 Alpha virt. eigenvalues --    0.78546   0.79263   0.79816   0.81117   0.82899
 Alpha virt. eigenvalues --    0.83671   0.84243   0.85152   0.85344   0.85948
 Alpha virt. eigenvalues --    0.87040   0.87775   0.88214   0.89846   0.90205
 Alpha virt. eigenvalues --    0.90663   0.91677   0.92508   0.93343   0.93681
 Alpha virt. eigenvalues --    0.94463   0.96320   0.97019   0.97512   0.98895
 Alpha virt. eigenvalues --    1.01013   1.03639   1.05761   1.07917   1.10307
 Alpha virt. eigenvalues --    1.14215   1.16080   1.17339   1.20498   1.21143
 Alpha virt. eigenvalues --    1.26095   1.27844   1.29400   1.29913   1.32815
 Alpha virt. eigenvalues --    1.35005   1.35846   1.37117   1.38367   1.38792
 Alpha virt. eigenvalues --    1.39959   1.43831   1.47045   1.52092   1.54088
 Alpha virt. eigenvalues --    1.54799   1.57549   1.61375   1.64022   1.65286
 Alpha virt. eigenvalues --    1.68005   1.69131   1.71631   1.74497   1.74909
 Alpha virt. eigenvalues --    1.77724   1.79349   1.80725   1.81537   1.83506
 Alpha virt. eigenvalues --    1.84984   1.85712   1.87536   1.87697   1.88154
 Alpha virt. eigenvalues --    1.89467   1.90932   1.91338   1.93616   1.94017
 Alpha virt. eigenvalues --    1.96285   1.97252   1.97385   1.99223   2.00252
 Alpha virt. eigenvalues --    2.01404   2.02516   2.02921   2.02961   2.03362
 Alpha virt. eigenvalues --    2.03840   2.04236   2.05372   2.06044   2.07651
 Alpha virt. eigenvalues --    2.08144   2.09137   2.10115   2.10551   2.11187
 Alpha virt. eigenvalues --    2.12097   2.14066   2.17222   2.18037   2.21515
 Alpha virt. eigenvalues --    2.23581   2.24216   2.25890   2.27268   2.27899
 Alpha virt. eigenvalues --    2.30625   2.33707   2.35223   2.38132   2.39548
 Alpha virt. eigenvalues --    2.41553   2.44664   2.45443   2.50378   2.50687
 Alpha virt. eigenvalues --    2.51764   2.54047   2.54888   2.56705   2.57920
 Alpha virt. eigenvalues --    2.58187   2.60532   2.62344   2.63949   2.65292
 Alpha virt. eigenvalues --    2.65541   2.67501   2.69456   2.69683   2.69884
 Alpha virt. eigenvalues --    2.70561   2.72016   2.74569   2.78641   2.79125
 Alpha virt. eigenvalues --    2.80236   2.80989   2.84003   2.84834   2.85518
 Alpha virt. eigenvalues --    2.86685   2.89511   2.90418   2.90972   2.92211
 Alpha virt. eigenvalues --    2.97712   2.98264   2.99725   3.04729   3.10158
 Alpha virt. eigenvalues --    3.11532   3.13416   3.14446   3.17233   3.18392
 Alpha virt. eigenvalues --    3.23861   3.26757   3.27325   3.32255   3.36114
 Alpha virt. eigenvalues --    3.38005   3.39014   3.41746   3.42741   3.43348
 Alpha virt. eigenvalues --    3.43752   3.44271   3.46646   3.48397   3.48858
 Alpha virt. eigenvalues --    3.55431   3.95696   4.00417   4.08280   4.15782
 Alpha virt. eigenvalues --    4.19004   4.32924   4.38391   4.40196   4.44868
 Alpha virt. eigenvalues --    4.49710   4.52350   4.64903   4.69199   4.76242
          Condensed to atoms (all electrons):
              1          2          3          4          5          6
     1  C    5.156679   0.351117  -0.080491  -0.120170   0.008209  -0.000641
     2  C    0.351117   4.344330   0.579192   0.257001  -0.037654   0.002224
     3  O   -0.080491   0.579192   8.090936  -0.099641   0.002058   0.004478
     4  N   -0.120170   0.257001  -0.099641   7.096910   0.289318  -0.052030
     5  C    0.008209  -0.037654   0.002058   0.289318   5.095328   0.290562
     6  C   -0.000641   0.002224   0.004478  -0.052030   0.290562   4.426637
     7  O   -0.000413   0.010912  -0.002155  -0.007205  -0.090850   0.572207
     8  N   -0.000016  -0.000133  -0.000802   0.003287  -0.107274   0.268554
     9  C    0.000000  -0.000070  -0.000008   0.000312   0.000796  -0.028833
    10  C    0.000000  -0.000009   0.000000  -0.000105   0.005393  -0.027043
    11  H    0.367352  -0.022708   0.004751   0.004436  -0.000185   0.000008
    12  H    0.354042  -0.019847   0.002316   0.002903  -0.000213   0.000034
    13  H    0.367619  -0.021861   0.000293   0.001185  -0.000284   0.000024
    14  H    0.000526  -0.004748   0.016119  -0.036920   0.365537  -0.030998
    15  H   -0.000119   0.005993   0.000928  -0.037959   0.362195  -0.032168
    16  H   -0.000001  -0.000050  -0.000039   0.000144   0.006011  -0.009494
    17  H    0.000000  -0.000001   0.000000  -0.000006  -0.000307   0.002021
    18  H    0.000000   0.000037   0.000029  -0.000007  -0.000309  -0.000314
    19  H    0.000000   0.000000   0.000000   0.000001  -0.000139   0.001943
    20  H    0.000000  -0.000013   0.000001  -0.000008   0.001194  -0.002931
    21  H    0.000000   0.000005   0.000001   0.000003  -0.000099   0.000100
    22  C   -0.000473  -0.022504   0.002375   0.239605  -0.041775  -0.004807
    23  H    0.008157  -0.009102   0.000146  -0.029009   0.003997   0.000253
    24  H   -0.000313   0.002265  -0.000047  -0.034972  -0.002089   0.002615
    25  C   -0.001237   0.000738  -0.000044  -0.054122  -0.004235   0.000261
    26  H   -0.000345   0.000847  -0.000026   0.004430   0.000112  -0.000014
    27  H    0.000055  -0.000020   0.000000   0.002353   0.001053   0.000170
    28  O   -0.000004   0.000010   0.000000   0.002050   0.000024   0.000000
    29  C    0.000000  -0.000001   0.000000  -0.000125  -0.000001   0.000000
    30  H    0.000000   0.000000   0.000000   0.000001   0.000000   0.000000
    31  H    0.000000   0.000000   0.000000   0.000012  -0.000002   0.000000
    32  H    0.000000   0.000000   0.000000   0.000008   0.000000   0.000000
              7          8          9         10         11         12
     1  C   -0.000413  -0.000016   0.000000   0.000000   0.367352   0.354042
     2  C    0.010912  -0.000133  -0.000070  -0.000009  -0.022708  -0.019847
     3  O   -0.002155  -0.000802  -0.000008   0.000000   0.004751   0.002316
     4  N   -0.007205   0.003287   0.000312  -0.000105   0.004436   0.002903
     5  C   -0.090850  -0.107274   0.000796   0.005393  -0.000185  -0.000213
     6  C    0.572207   0.268554  -0.028833  -0.027043   0.000008   0.000034
     7  O    8.101560  -0.088234   0.002706  -0.012606   0.000001   0.000001
     8  N   -0.088234   7.017154   0.299184   0.292211   0.000000   0.000000
     9  C    0.002706   0.299184   4.800125  -0.051142   0.000000   0.000000
    10  C   -0.012606   0.292211  -0.051142   4.819379   0.000000   0.000000
    11  H    0.000001   0.000000   0.000000   0.000000   0.550502  -0.024206
    12  H    0.000001   0.000000   0.000000   0.000000  -0.024206   0.595906
    13  H    0.000376   0.000000   0.000000   0.000000  -0.021103  -0.029422
    14  H    0.001883   0.001551  -0.001145  -0.000277  -0.000008  -0.000044
    15  H    0.000341   0.001470  -0.001476  -0.000197   0.000003  -0.000012
    16  H    0.000058  -0.029648   0.385566   0.004215   0.000000   0.000000
    17  H   -0.000057  -0.041294   0.383724  -0.004113   0.000000   0.000000
    18  H    0.000010  -0.046210   0.384224  -0.000275   0.000000   0.000000
    19  H    0.000578  -0.042989  -0.003407   0.384130   0.000000   0.000000
    20  H    0.023946  -0.035934   0.004428   0.383877   0.000000   0.000000
    21  H    0.000741  -0.046644  -0.000442   0.388252   0.000000   0.000000
    22  C    0.004162   0.000165  -0.000006  -0.000003   0.000401  -0.001705
    23  H   -0.000076   0.000000   0.000000   0.000000  -0.000036  -0.001685
    24  H    0.005241  -0.000165  -0.000004   0.000010  -0.000014   0.000207
    25  C    0.000279   0.000008  -0.000001   0.000000   0.000010  -0.000091
    26  H   -0.000001   0.000000   0.000000   0.000000  -0.000030   0.002676
    27  H    0.000005   0.000000   0.000001   0.000000   0.000001  -0.000069
    28  O    0.000000   0.000000   0.000000   0.000000   0.000000  -0.000041
    29  C    0.000000   0.000000   0.000000   0.000000   0.000000  -0.000002
    30  H    0.000000   0.000000   0.000000   0.000000   0.000000   0.000000
    31  H    0.000000   0.000000   0.000000   0.000000   0.000000   0.000000
    32  H    0.000000   0.000000   0.000000   0.000000   0.000000   0.000004
             13         14         15         16         17         18
     1  C    0.367619   0.000526  -0.000119  -0.000001   0.000000   0.000000
     2  C   -0.021861  -0.004748   0.005993  -0.000050  -0.000001   0.000037
     3  O    0.000293   0.016119   0.000928  -0.000039   0.000000   0.000029
     4  N    0.001185  -0.036920  -0.037959   0.000144  -0.000006  -0.000007
     5  C   -0.000284   0.365537   0.362195   0.006011  -0.000307  -0.000309
     6  C    0.000024  -0.030998  -0.032168  -0.009494   0.002021  -0.000314
     7  O    0.000376   0.001883   0.000341   0.000058  -0.000057   0.000010
     8  N    0.000000   0.001551   0.001470  -0.029648  -0.041294  -0.046210
     9  C    0.000000  -0.001145  -0.001476   0.385566   0.383724   0.384224
    10  C    0.000000  -0.000277  -0.000197   0.004215  -0.004113  -0.000275
    11  H   -0.021103  -0.000008   0.000003   0.000000   0.000000   0.000000
    12  H   -0.029422  -0.000044  -0.000012   0.000000   0.000000   0.000000
    13  H    0.557206  -0.000011  -0.000004   0.000000   0.000000   0.000000
    14  H   -0.000011   0.561827  -0.027361  -0.001018   0.000106   0.000923
    15  H   -0.000004  -0.027361   0.604842   0.001480   0.000072  -0.000035
    16  H    0.000000  -0.001018   0.001480   0.578122  -0.024955  -0.034352
    17  H    0.000000   0.000106   0.000072  -0.024955   0.607745  -0.045036
    18  H    0.000000   0.000923  -0.000035  -0.034352  -0.045036   0.608310
    19  H    0.000000  -0.000010   0.000026   0.000128   0.007033  -0.001320
    20  H    0.000000  -0.000039  -0.000028  -0.000235   0.000040  -0.000136
    21  H    0.000000   0.000025  -0.000008  -0.000106  -0.002346   0.005657
    22  C   -0.002290   0.004888  -0.000775   0.000000   0.000000   0.000000
    23  H    0.001532  -0.000243   0.000125   0.000000   0.000000   0.000000
    24  H    0.000211   0.000074  -0.001912   0.000002   0.000001   0.000000
    25  C    0.000058   0.000197   0.000848   0.000000   0.000000   0.000000
    26  H    0.000049   0.000003  -0.000179   0.000000   0.000000   0.000000
    27  H   -0.000005  -0.000229   0.002894  -0.000002   0.000000   0.000000
    28  O   -0.000001   0.000000  -0.000112   0.000000   0.000000   0.000000
    29  C    0.000000   0.000000   0.000002   0.000000   0.000000   0.000000
    30  H    0.000000   0.000000   0.000000   0.000000   0.000000   0.000000
    31  H    0.000000   0.000000   0.000004   0.000000   0.000000   0.000000
    32  H    0.000000   0.000000   0.000000   0.000000   0.000000   0.000000
             19         20         21         22         23         24
     1  C    0.000000   0.000000   0.000000  -0.000473   0.008157  -0.000313
     2  C    0.000000  -0.000013   0.000005  -0.022504  -0.009102   0.002265
     3  O    0.000000   0.000001   0.000001   0.002375   0.000146  -0.000047
     4  N    0.000001  -0.000008   0.000003   0.239605  -0.029009  -0.034972
     5  C   -0.000139   0.001194  -0.000099  -0.041775   0.003997  -0.002089
     6  C    0.001943  -0.002931   0.000100  -0.004807   0.000253   0.002615
     7  O    0.000578   0.023946   0.000741   0.004162  -0.000076   0.005241
     8  N   -0.042989  -0.035934  -0.046644   0.000165   0.000000  -0.000165
     9  C   -0.003407   0.004428  -0.000442  -0.000006   0.000000  -0.000004
    10  C    0.384130   0.383877   0.388252  -0.000003   0.000000   0.000010
    11  H    0.000000   0.000000   0.000000   0.000401  -0.000036  -0.000014
    12  H    0.000000   0.000000   0.000000  -0.001705  -0.001685   0.000207
    13  H    0.000000   0.000000   0.000000  -0.002290   0.001532   0.000211
    14  H   -0.000010  -0.000039   0.000025   0.004888  -0.000243   0.000074
    15  H    0.000026  -0.000028  -0.000008  -0.000775   0.000125  -0.001912
    16  H    0.000128  -0.000235  -0.000106   0.000000   0.000000   0.000002
    17  H    0.007033   0.000040  -0.002346   0.000000   0.000000   0.000001
    18  H   -0.001320  -0.000136   0.005657   0.000000   0.000000   0.000000
    19  H    0.614894  -0.024048  -0.044826   0.000000   0.000000   0.000000
    20  H   -0.024048   0.513368  -0.025161  -0.000004   0.000000   0.000000
    21  H   -0.044826  -0.025161   0.608549   0.000000   0.000000   0.000000
    22  C    0.000000  -0.000004   0.000000   4.906038   0.379754   0.378452
    23  H    0.000000   0.000000   0.000000   0.379754   0.588049  -0.029456
    24  H    0.000000   0.000000   0.000000   0.378452  -0.029456   0.587919
    25  C    0.000000   0.000000   0.000000   0.351978  -0.042730  -0.046389
    26  H    0.000000   0.000000   0.000000  -0.038106  -0.008694   0.006442
    27  H    0.000000   0.000000   0.000000  -0.041814   0.006553  -0.007238
    28  O    0.000000   0.000000   0.000000  -0.039711   0.005251   0.005638
    29  C    0.000000   0.000000   0.000000   0.004359  -0.000079  -0.000089
    30  H    0.000000   0.000000   0.000000  -0.000252   0.000007   0.000010
    31  H    0.000000   0.000000   0.000000   0.000004   0.000046  -0.000056
    32  H    0.000000   0.000000   0.000000   0.000026  -0.000070   0.000045
             25         26         27         28         29         30
     1  C   -0.001237  -0.000345   0.000055  -0.000004   0.000000   0.000000
     2  C    0.000738   0.000847  -0.000020   0.000010  -0.000001   0.000000
     3  O   -0.000044  -0.000026   0.000000   0.000000   0.000000   0.000000
     4  N   -0.054122   0.004430   0.002353   0.002050  -0.000125   0.000001
     5  C   -0.004235   0.000112   0.001053   0.000024  -0.000001   0.000000
     6  C    0.000261  -0.000014   0.000170   0.000000   0.000000   0.000000
     7  O    0.000279  -0.000001   0.000005   0.000000   0.000000   0.000000
     8  N    0.000008   0.000000   0.000000   0.000000   0.000000   0.000000
     9  C   -0.000001   0.000000   0.000001   0.000000   0.000000   0.000000
    10  C    0.000000   0.000000   0.000000   0.000000   0.000000   0.000000
    11  H    0.000010  -0.000030   0.000001   0.000000   0.000000   0.000000
    12  H   -0.000091   0.002676  -0.000069  -0.000041  -0.000002   0.000000
    13  H    0.000058   0.000049  -0.000005  -0.000001   0.000000   0.000000
    14  H    0.000197   0.000003  -0.000229   0.000000   0.000000   0.000000
    15  H    0.000848  -0.000179   0.002894  -0.000112   0.000002   0.000000
    16  H    0.000000   0.000000  -0.000002   0.000000   0.000000   0.000000
    17  H    0.000000   0.000000   0.000000   0.000000   0.000000   0.000000
    18  H    0.000000   0.000000   0.000000   0.000000   0.000000   0.000000
    19  H    0.000000   0.000000   0.000000   0.000000   0.000000   0.000000
    20  H    0.000000   0.000000   0.000000   0.000000   0.000000   0.000000
    21  H    0.000000   0.000000   0.000000   0.000000   0.000000   0.000000
    22  C    0.351978  -0.038106  -0.041814  -0.039711   0.004359  -0.000252
    23  H   -0.042730  -0.008694   0.006553   0.005251  -0.000079   0.000007
    24  H   -0.046389   0.006442  -0.007238   0.005638  -0.000089   0.000010
    25  C    4.795402   0.357971   0.361807   0.230842  -0.033937   0.005273
    26  H    0.357971   0.688705  -0.061770  -0.038871  -0.006585  -0.000100
    27  H    0.361807  -0.061770   0.694056  -0.039285  -0.006231  -0.000108
    28  O    0.230842  -0.038871  -0.039285   8.206542   0.259247  -0.032910
    29  C   -0.033937  -0.006585  -0.006231   0.259247   4.707267   0.394770
    30  H    0.005273  -0.000100  -0.000108  -0.032910   0.394770   0.585596
    31  H   -0.009154  -0.002742   0.013455  -0.037710   0.369716  -0.034983
    32  H   -0.008934   0.013428  -0.002742  -0.037729   0.370452  -0.035001
             31         32
     1  C    0.000000   0.000000
     2  C    0.000000   0.000000
     3  O    0.000000   0.000000
     4  N    0.000012   0.000008
     5  C   -0.000002   0.000000
     6  C    0.000000   0.000000
     7  O    0.000000   0.000000
     8  N    0.000000   0.000000
     9  C    0.000000   0.000000
    10  C    0.000000   0.000000
    11  H    0.000000   0.000000
    12  H    0.000000   0.000004
    13  H    0.000000   0.000000
    14  H    0.000000   0.000000
    15  H    0.000004   0.000000
    16  H    0.000000   0.000000
    17  H    0.000000   0.000000
    18  H    0.000000   0.000000
    19  H    0.000000   0.000000
    20  H    0.000000   0.000000
    21  H    0.000000   0.000000
    22  C    0.000004   0.000026
    23  H    0.000046  -0.000070
    24  H   -0.000056   0.000045
    25  C   -0.009154  -0.008934
    26  H   -0.002742   0.013428
    27  H    0.013455  -0.002742
    28  O   -0.037710  -0.037729
    29  C    0.369716   0.370452
    30  H   -0.034983  -0.035001
    31  H    0.663206  -0.052771
    32  H   -0.052771   0.660762
 Mulliken atomic charges:
              1
     1  C   -0.409533
     2  C    0.584050
     3  O   -0.520371
     4  N   -0.431680
     5  C   -0.146371
     6  C    0.617180
     7  O   -0.523413
     8  N   -0.444242
     9  C   -0.174534
    10  C   -0.181695
    11  H    0.140824
    12  H    0.119249
    13  H    0.146427
    14  H    0.149391
    15  H    0.121122
    16  H    0.124175
    17  H    0.117373
    18  H    0.128806
    19  H    0.108005
    20  H    0.161683
    21  H    0.116298
    22  C   -0.077982
    23  H    0.127307
    24  H    0.133613
    25  C    0.095200
    26  H    0.082802
    27  H    0.077112
    28  O   -0.483228
    29  C   -0.058762
    30  H    0.117698
    31  H    0.090975
    32  H    0.092524
 Sum of Mulliken atomic charges =   0.00000
 Mulliken charges with hydrogens summed into heavy atoms:
              1
     1  C   -0.003034
     2  C    0.584050
     3  O   -0.520371
     4  N   -0.431680
     5  C    0.124142
     6  C    0.617180
     7  O   -0.523413
     8  N   -0.444242
     9  C    0.195820
    10  C    0.204291
    22  C    0.182937
    25  C    0.255114
    28  O   -0.483228
    29  C    0.242434
 Sum of Mulliken charges with hydrogens summed into heavy atoms =   0.00000
 Electronic spatial extent (au):  <R**2>=           4007.2481
 Charge=              0.0000 electrons
 Dipole moment (field-independent basis, Debye):
    X=              0.8734    Y=             -3.1046    Z=             -2.2229  Tot=              3.9170
 Quadrupole moment (field-independent basis, Debye-Ang):
   XX=            -69.2349   YY=            -85.4411   ZZ=            -87.9496
   XY=              8.2952   XZ=             -0.3396   YZ=              5.9882
 Traceless Quadrupole moment (field-independent basis, Debye-Ang):
   XX=             11.6403   YY=             -4.5659   ZZ=             -7.0744
   XY=              8.2952   XZ=             -0.3396   YZ=              5.9882
 Octapole moment (field-independent basis, Debye-Ang**2):
  XXX=             -8.4882  YYY=             -7.0834  ZZZ=             -1.9281  XYY=             15.7058
  XXY=            -29.1898  XXZ=            -13.6657  XZZ=             -2.3299  YZZ=             -3.5455
  YYZ=              8.2307  XYZ=             -0.6012
 Hexadecapole moment (field-independent basis, Debye-Ang**3):
 XXXX=          -3223.9971 YYYY=          -1119.6178 ZZZZ=           -424.9532 XXXY=            -50.2342
 XXXZ=            -38.2782 YYYX=             17.6715 YYYZ=             18.9751 ZZZX=             16.0381
 ZZZY=             -1.1716 XXYY=           -750.0912 XXZZ=           -671.7132 YYZZ=           -260.1398
 XXYZ=             11.1285 YYXZ=             -7.2834 ZZXY=              7.6028
 N-N= 9.619465859187D+02 E-N=-3.529973568796D+03  KE= 6.826267142459D+02
 Calling FoFJK, ICntrl=      2127 FMM=F ISym2X=0 I1Cent= 0 IOpClX= 0 NMat=1 NMatS=1 NMatT=0.
 ***** Axes restored to original set *****
 -------------------------------------------------------------------
 Center     Atomic                   Forces (Hartrees/Bohr)
 Number     Number              X              Y              Z
 -------------------------------------------------------------------
      1        6           0.000001036   -0.000000653    0.000002858
      2        6           0.000769885    0.000163809   -0.002380931
      3        8           0.000002333    0.000003140    0.000006206
      4        7          -0.000702525   -0.000861874    0.003697708
      5        6          -0.001074869    0.002383656   -0.002264547
      6        6           0.001000547   -0.001683603    0.000944704
      7        8           0.000004211   -0.000000657    0.000004501
      8        7           0.000000205   -0.000000244    0.000006471
      9        6          -0.000002108    0.000005202    0.000002362
     10        6           0.000000543    0.000000607    0.000003146
     11        1           0.000001706    0.000000354    0.000002509
     12        1           0.000000998   -0.000000299   -0.000000165
     13        1           0.000002462   -0.000001913    0.000001015
     14        1          -0.000001430   -0.000000320    0.000002314
     15        1          -0.000001633   -0.000001407   -0.000002457
     16        1          -0.000001087    0.000001883    0.000000932
     17        1          -0.000001243    0.000002213    0.000003380
     18        1          -0.000001860    0.000002302    0.000004475
     19        1           0.000001006    0.000000192    0.000004203
     20        1           0.000002595   -0.000000595    0.000004494
     21        1           0.000000875    0.000000749    0.000006076
     22        6          -0.000000602   -0.000001033   -0.000000161
     23        1           0.000002423   -0.000001577   -0.000000687
     24        1           0.000001485   -0.000002252   -0.000001698
     25        6           0.000001906   -0.000003108   -0.000000912
     26        1          -0.000000308    0.000000926   -0.000004119
     27        1          -0.000002741    0.000000390   -0.000004235
     28        8          -0.000002179   -0.000000441   -0.000005766
     29        6           0.000001607   -0.000001591   -0.000007999
     30        1          -0.000000282   -0.000001915   -0.000008606
     31        1          -0.000001941   -0.000000898   -0.000007812
     32        1          -0.000001014   -0.000001046   -0.000007259
 -------------------------------------------------------------------
 Cartesian Forces:  Max     0.003697708 RMS     0.000628258

 GradGradGradGradGradGradGradGradGradGradGradGradGradGradGradGradGradGrad
 Berny optimization.
 Internal  Forces:  Max     0.002255258 RMS     0.000303938
 Search for a local minimum.
 Step number   1 out of a maximum of  155 on scan point     1 out of    37
 All quantities printed in internal units (Hartrees-Bohrs-Radians)
 Mixed Optimization -- En-DIIS/RFO-DIIS
 Second derivative matrix not updated -- first step.
 ITU=  0
     Eigenvalues ---    0.00387   0.00509   0.00701   0.00866   0.00936
     Eigenvalues ---    0.00972   0.01073   0.01303   0.01330   0.01528
     Eigenvalues ---    0.01532   0.01926   0.02083   0.03031   0.04219
     Eigenvalues ---    0.05323   0.05487   0.05907   0.06479   0.06932
     Eigenvalues ---    0.07192   0.07466   0.07518   0.07551   0.07667
     Eigenvalues ---    0.09342   0.09688   0.10038   0.10507   0.10512
     Eigenvalues ---    0.11124   0.12813   0.13640   0.16000   0.16000
     Eigenvalues ---    0.16000   0.16000   0.16000   0.16000   0.16000
     Eigenvalues ---    0.16000   0.16000   0.16000   0.16000   0.16000
     Eigenvalues ---    0.21903   0.21923   0.22007   0.22526   0.23761
     Eigenvalues ---    0.24635   0.24799   0.24979   0.24991   0.25000
     Eigenvalues ---    0.25000   0.25000   0.27923   0.29551   0.30421
     Eigenvalues ---    0.33219   0.33305   0.33521   0.33536   0.33803
     Eigenvalues ---    0.33940   0.34080   0.34191   0.34197   0.34226
     Eigenvalues ---    0.34382   0.34404   0.34536   0.34741   0.34802
     Eigenvalues ---    0.34847   0.34917   0.35012   0.36664   0.37324
     Eigenvalues ---    0.37672   0.37944   0.43631   0.43678   0.48688
     Eigenvalues ---    0.50896   0.92642   0.926511000.000001000.00000
     Eigenvalues --- 1000.000001000.000001000.000001000.000001000.00000
     Eigenvalues --- 1000.000001000.000001000.000001000.000001000.00000
     Eigenvalues --- 1000.000001000.000001000.000001000.000001000.00000
     Eigenvalues --- 1000.000001000.000001000.000001000.000001000.00000
     Eigenvalues --- 1000.000001000.000001000.000001000.000001000.00000
     Eigenvalues --- 1000.000001000.000001000.000001000.000001000.00000
     Eigenvalues --- 1000.000001000.000001000.000001000.000001000.00000
     Eigenvalues --- 1000.000001000.000001000.000001000.000001000.00000
     Eigenvalues --- 1000.000001000.000001000.000001000.000001000.00000
     Eigenvalues --- 1000.000001000.000001000.000001000.000001000.00000
     Eigenvalues --- 1000.000001000.000001000.000001000.000001000.00000
 RFO step:  Lambda= 0.00000000D+00 EMin= 3.87375138D-03
 Linear search not attempted -- first point.
 Iteration  1 RMS(Cart)=  0.00004876 RMS(Int)=  0.00000000
 Iteration  2 RMS(Cart)=  0.00000000 RMS(Int)=  0.00000000
 Iteration  1 RMS(Cart)=  0.00000000 RMS(Int)=  0.00000000
 Variable       Old X    -DE/DX   Delta X   Delta X   Delta X     New X
                                 (Linear)    (Quad)   (Total)
    R1        2.87132   0.00000   0.00000   0.00000   0.00000   2.87132
    R2        2.05924   0.00000   0.00000   0.00000   0.00000   2.05924
    R3        2.06654   0.00000   0.00000   0.00000   0.00000   2.06654
    R4        2.07000   0.00000   0.00000   0.00000   0.00000   2.06999
    R5        2.31739   0.00000   0.00000   0.00000   0.00000   2.31738
    R6        2.61213   0.00001   0.00000   0.00002   0.00002   2.61215
    R7        2.74447   0.00000   0.00000   0.00001   0.00001   2.74448
    R8        2.76355   0.00000   0.00000   0.00000   0.00000   2.76356
    R9        2.92307   0.00000   0.00000  -0.00001  -0.00001   2.92306
   R10        2.06097   0.00000   0.00000   0.00000   0.00000   2.06096
   R11        2.06951   0.00000   0.00000   0.00001   0.00001   2.06951
   R12        2.31735   0.00000   0.00000   0.00000   0.00000   2.31735
   R13        2.58971   0.00000   0.00000  -0.00001  -0.00001   2.58971
   R14        2.74845   0.00000   0.00000   0.00000   0.00000   2.74845
   R15        2.75361   0.00000   0.00000   0.00000   0.00000   2.75361
   R16        2.05809   0.00000   0.00000   0.00001   0.00001   2.05810
   R17        2.07009   0.00000   0.00000   0.00000   0.00000   2.07009
   R18        2.07664   0.00000   0.00000   0.00000   0.00000   2.07664
   R19        2.07195   0.00000   0.00000   0.00000   0.00000   2.07195
   R20        2.05655   0.00000   0.00000   0.00000   0.00000   2.05655
   R21        2.07431   0.00000   0.00000   0.00000   0.00000   2.07431
   R22        2.05998   0.00000   0.00000   0.00000   0.00000   2.05999
   R23        2.06690   0.00000   0.00000   0.00000   0.00000   2.06690
   R24        2.88867   0.00000   0.00000   0.00000   0.00000   2.88867
   R25        2.08520   0.00000   0.00000   0.00000   0.00000   2.08520
   R26        2.08668   0.00000   0.00000   0.00000   0.00000   2.08668
   R27        2.66898   0.00000   0.00000   0.00000   0.00000   2.66898
   R28        2.66842   0.00000   0.00000   0.00000   0.00000   2.66843
   R29        2.06435   0.00000   0.00000   0.00000   0.00000   2.06435
   R30        2.08146   0.00000   0.00000   0.00000   0.00000   2.08146
   R31        2.08121   0.00000   0.00000   0.00000   0.00000   2.08121
    A1        1.87356   0.00000   0.00000   0.00000   0.00000   1.87356
    A2        1.97358   0.00000   0.00000   0.00000   0.00000   1.97358
    A3        1.92498   0.00000   0.00000   0.00000   0.00000   1.92498
    A4        1.91161   0.00000   0.00000  -0.00001  -0.00001   1.91160
    A5        1.89269   0.00000   0.00000   0.00000   0.00000   1.89269
    A6        1.88608   0.00000   0.00000   0.00000   0.00000   1.88609
    A7        2.11719   0.00000   0.00000  -0.00001  -0.00001   2.11718
    A8        2.05980   0.00000   0.00000   0.00000   0.00000   2.05980
    A9        2.10581   0.00000   0.00000   0.00002   0.00002   2.10583
   A10        2.00722  -0.00016   0.00000   0.00002   0.00002   2.00724
   A11        2.16046   0.00053   0.00000  -0.00002  -0.00002   2.16044
   A12        2.04270  -0.00011   0.00000  -0.00002  -0.00002   2.04268
   A13        1.93521  -0.00001   0.00000  -0.00002  -0.00002   1.93519
   A14        1.89020   0.00008   0.00000   0.00001   0.00001   1.89021
   A15        1.90368  -0.00007   0.00000   0.00001   0.00001   1.90369
   A16        1.92682   0.00103   0.00000   0.00001   0.00001   1.92682
   A17        1.91548  -0.00102   0.00000   0.00000   0.00000   1.91548
   A18        1.89165   0.00000   0.00000  -0.00001  -0.00001   1.89164
   A19        2.09400   0.00000   0.00000   0.00000   0.00000   2.09400
   A20        2.04726   0.00000   0.00000  -0.00002  -0.00002   2.04725
   A21        2.14114   0.00000   0.00000   0.00001   0.00001   2.14115
   A22        2.17916  -0.00001   0.00000  -0.00003  -0.00003   2.17913
   A23        2.07292   0.00000   0.00000   0.00001   0.00001   2.07293
   A24        2.01953   0.00000   0.00000   0.00001   0.00001   2.01954
   A25        1.94784   0.00000   0.00000   0.00000   0.00000   1.94783
   A26        1.90557   0.00000   0.00000  -0.00001  -0.00001   1.90557
   A27        1.95262   0.00000   0.00000   0.00001   0.00001   1.95262
   A28        1.87579   0.00000   0.00000   0.00000   0.00000   1.87579
   A29        1.89427   0.00000   0.00000   0.00000   0.00000   1.89427
   A30        1.88516   0.00000   0.00000   0.00001   0.00001   1.88516
   A31        1.92514   0.00000   0.00000   0.00000   0.00000   1.92515
   A32        1.89101   0.00000   0.00000   0.00000   0.00000   1.89101
   A33        1.93261   0.00000   0.00000   0.00000   0.00000   1.93261
   A34        1.91557   0.00000   0.00000   0.00000   0.00000   1.91557
   A35        1.89249   0.00000   0.00000   0.00000   0.00000   1.89249
   A36        1.90702   0.00000   0.00000   0.00000   0.00000   1.90702
   A37        1.92912   0.00000   0.00000   0.00001   0.00001   1.92912
   A38        1.90647   0.00000   0.00000   0.00000   0.00000   1.90647
   A39        1.95236   0.00000   0.00000   0.00000   0.00000   1.95236
   A40        1.85188   0.00000   0.00000   0.00000   0.00000   1.85188
   A41        1.90474   0.00000   0.00000   0.00000   0.00000   1.90475
   A42        1.91661   0.00000   0.00000  -0.00001  -0.00001   1.91660
   A43        1.92020   0.00000   0.00000   0.00000   0.00000   1.92020
   A44        1.92694   0.00000   0.00000  -0.00001  -0.00001   1.92693
   A45        1.87806   0.00000   0.00000   0.00000   0.00000   1.87806
   A46        1.86414   0.00000   0.00000   0.00000   0.00000   1.86414
   A47        1.93983   0.00000   0.00000   0.00000   0.00000   1.93983
   A48        1.93529   0.00000   0.00000   0.00001   0.00001   1.93530
   A49        1.97283   0.00000   0.00000   0.00000   0.00000   1.97283
   A50        1.87283   0.00000   0.00000   0.00000   0.00000   1.87283
   A51        1.95123   0.00000   0.00000   0.00000   0.00000   1.95123
   A52        1.95142   0.00000   0.00000   0.00000   0.00000   1.95142
   A53        1.89961   0.00000   0.00000   0.00000   0.00000   1.89961
   A54        1.89987   0.00000   0.00000   0.00000   0.00000   1.89988
   A55        1.88780   0.00000   0.00000   0.00000   0.00000   1.88781
    D1       -0.22885   0.00000   0.00000  -0.00003  -0.00003  -0.22888
    D2        2.88340   0.00000   0.00000   0.00000   0.00000   2.88340
    D3       -2.33917   0.00000   0.00000  -0.00002  -0.00002  -2.33919
    D4        0.77308   0.00000   0.00000   0.00001   0.00001   0.77309
    D5        1.82997   0.00000   0.00000  -0.00003  -0.00003   1.82994
    D6       -1.34097   0.00000   0.00000   0.00000   0.00000  -1.34096
    D7        2.98730   0.00033   0.00000  -0.00002  -0.00002   2.98728
    D8        0.25955  -0.00033   0.00000   0.00003   0.00003   0.25958
    D9       -0.18344   0.00033   0.00000   0.00001   0.00001  -0.18343
   D10       -2.91119  -0.00033   0.00000   0.00006   0.00006  -2.91113
   D11       -1.24495  -0.00226   0.00000   0.00000   0.00000  -1.24495
   D12        0.87162  -0.00094   0.00000   0.00001   0.00001   0.87162
   D13        2.92698  -0.00093   0.00000   0.00001   0.00001   2.92698
   D14        1.51200  -0.00149   0.00000  -0.00005  -0.00005   1.51195
   D15       -2.65463  -0.00017   0.00000  -0.00004  -0.00004  -2.65467
   D16       -0.59927  -0.00016   0.00000  -0.00004  -0.00004  -0.59931
   D17        0.17341   0.00033   0.00000  -0.00004  -0.00004   0.17337
   D18        2.20467   0.00033   0.00000  -0.00004  -0.00004   2.20463
   D19       -1.95290   0.00033   0.00000  -0.00005  -0.00005  -1.95295
   D20       -2.54666  -0.00033   0.00000   0.00001   0.00001  -2.54665
   D21       -0.51540  -0.00033   0.00000   0.00001   0.00001  -0.51539
   D22        1.61022  -0.00033   0.00000   0.00000   0.00000   1.61022
   D23       -0.27094   0.00051   0.00000  -0.00001  -0.00001  -0.27094
   D24        2.91216   0.00051   0.00000   0.00000   0.00000   2.91216
   D25       -2.36580  -0.00026   0.00000  -0.00002  -0.00002  -2.36581
   D26        0.81730  -0.00026   0.00000  -0.00001  -0.00001   0.81729
   D27        1.83334  -0.00026   0.00000   0.00000   0.00000   1.83333
   D28       -1.26675  -0.00026   0.00000   0.00000   0.00000  -1.26675
   D29       -0.10606   0.00000   0.00000   0.00003   0.00003  -0.10603
   D30       -3.07738   0.00000   0.00000   0.00004   0.00004  -3.07734
   D31        3.07825   0.00000   0.00000   0.00003   0.00003   3.07828
   D32        0.10693   0.00000   0.00000   0.00005   0.00005   0.10698
   D33        0.43258   0.00000   0.00000   0.00000   0.00000   0.43258
   D34        2.50370   0.00000   0.00000  -0.00001  -0.00001   2.50369
   D35       -1.69377   0.00000   0.00000   0.00000   0.00000  -1.69377
   D36       -2.87463   0.00000   0.00000  -0.00001  -0.00001  -2.87464
   D37       -0.80350   0.00000   0.00000  -0.00003  -0.00003  -0.80353
   D38        1.28222   0.00000   0.00000  -0.00002  -0.00002   1.28220
   D39       -2.23862   0.00000   0.00000   0.00001   0.00001  -2.23861
   D40       -0.14150   0.00000   0.00000   0.00000   0.00000  -0.14149
   D41        1.94963   0.00000   0.00000   0.00000   0.00000   1.94963
   D42        1.05792   0.00000   0.00000   0.00003   0.00003   1.05795
   D43       -3.12814   0.00000   0.00000   0.00003   0.00003  -3.12812
   D44       -1.03702   0.00000   0.00000   0.00002   0.00002  -1.03699
   D45        1.07159   0.00000   0.00000   0.00000   0.00000   1.07159
   D46       -0.98160   0.00000   0.00000   0.00001   0.00001  -0.98159
   D47       -3.09582   0.00000   0.00000   0.00000   0.00000  -3.09582
   D48       -1.06866   0.00000   0.00000  -0.00001  -0.00001  -1.06866
   D49       -3.12185   0.00000   0.00000   0.00000   0.00000  -3.12185
   D50        1.04711   0.00000   0.00000  -0.00001  -0.00001   1.04711
   D51       -3.09181   0.00000   0.00000   0.00000   0.00000  -3.09182
   D52        1.13818   0.00000   0.00000   0.00000   0.00000   1.13819
   D53       -0.97604   0.00000   0.00000   0.00000   0.00000  -0.97605
   D54       -3.13024   0.00000   0.00000   0.00000   0.00000  -3.13024
   D55       -1.02680   0.00000   0.00000   0.00000   0.00000  -1.02680
   D56        1.04396   0.00000   0.00000   0.00000   0.00000   1.04396
   D57       -3.13985   0.00000   0.00000  -0.00001  -0.00001  -3.13986
   D58       -1.05825   0.00000   0.00000  -0.00001  -0.00001  -1.05827
   D59        1.06130   0.00000   0.00000  -0.00001  -0.00001   1.06129
         Item               Value     Threshold  Converged?
 Maximum Force            0.000010     0.000450     YES
 RMS     Force            0.000002     0.000300     YES
 Maximum Displacement     0.000145     0.001800     YES
 RMS     Displacement     0.000049     0.001200     YES
 Predicted change in Energy=-9.101010D-10
 Optimization completed.
    -- Stationary point found.
                           ----------------------------
                           !   Optimized Parameters   !
                           ! (Angstroms and Degrees)  !
 --------------------------                            --------------------------
 ! Name  Definition              Value          Derivative Info.                !
 --------------------------------------------------------------------------------
 ! R1    R(1,2)                  1.5194         -DE/DX =    0.0                 !
 ! R2    R(1,11)                 1.0897         -DE/DX =    0.0                 !
 ! R3    R(1,12)                 1.0936         -DE/DX =    0.0                 !
 ! R4    R(1,13)                 1.0954         -DE/DX =    0.0                 !
 ! R5    R(2,3)                  1.2263         -DE/DX =    0.0                 !
 ! R6    R(2,4)                  1.3823         -DE/DX =    0.0                 !
 ! R7    R(4,5)                  1.4523         -DE/DX =    0.0                 !
 ! R8    R(4,22)                 1.4624         -DE/DX =    0.0                 !
 ! R9    R(5,6)                  1.5468         -DE/DX =    0.0                 !
 ! R10   R(5,14)                 1.0906         -DE/DX =    0.0                 !
 ! R11   R(5,15)                 1.0951         -DE/DX =    0.0                 !
 ! R12   R(6,7)                  1.2263         -DE/DX =    0.0                 !
 ! R13   R(6,8)                  1.3704         -DE/DX =    0.0                 !
 ! R14   R(8,9)                  1.4544         -DE/DX =    0.0                 !
 ! R15   R(8,10)                 1.4571         -DE/DX =    0.0                 !
 ! R16   R(9,16)                 1.0891         -DE/DX =    0.0                 !
 ! R17   R(9,17)                 1.0954         -DE/DX =    0.0                 !
 ! R18   R(9,18)                 1.0989         -DE/DX =    0.0                 !
 ! R19   R(10,19)                1.0964         -DE/DX =    0.0                 !
 ! R20   R(10,20)                1.0883         -DE/DX =    0.0                 !
 ! R21   R(10,21)                1.0977         -DE/DX =    0.0                 !
 ! R22   R(22,23)                1.0901         -DE/DX =    0.0                 !
 ! R23   R(22,24)                1.0938         -DE/DX =    0.0                 !
 ! R24   R(22,25)                1.5286         -DE/DX =    0.0                 !
 ! R25   R(25,26)                1.1034         -DE/DX =    0.0                 !
 ! R26   R(25,27)                1.1042         -DE/DX =    0.0                 !
 ! R27   R(25,28)                1.4124         -DE/DX =    0.0                 !
 ! R28   R(28,29)                1.4121         -DE/DX =    0.0                 !
 ! R29   R(29,30)                1.0924         -DE/DX =    0.0                 !
 ! R30   R(29,31)                1.1015         -DE/DX =    0.0                 !
 ! R31   R(29,32)                1.1013         -DE/DX =    0.0                 !
 ! A1    A(2,1,11)             107.3471         -DE/DX =    0.0                 !
 ! A2    A(2,1,12)             113.0775         -DE/DX =    0.0                 !
 ! A3    A(2,1,13)             110.2932         -DE/DX =    0.0                 !
 ! A4    A(11,1,12)            109.5269         -DE/DX =    0.0                 !
 ! A5    A(11,1,13)            108.4432         -DE/DX =    0.0                 !
 ! A6    A(12,1,13)            108.0646         -DE/DX =    0.0                 !
 ! A7    A(1,2,3)              121.3063         -DE/DX =    0.0                 !
 ! A8    A(1,2,4)              118.0181         -DE/DX =    0.0                 !
 ! A9    A(3,2,4)              120.6539         -DE/DX =    0.0                 !
 ! A10   A(2,4,5)              115.0054         -DE/DX =   -0.0002              !
 ! A11   A(2,4,22)             123.785          -DE/DX =    0.0005              !
 ! A12   A(5,4,22)             117.0383         -DE/DX =   -0.0001              !
 ! A13   A(4,5,6)              110.8793         -DE/DX =    0.0                 !
 ! A14   A(4,5,14)             108.3005         -DE/DX =    0.0001              !
 ! A15   A(4,5,15)             109.0726         -DE/DX =   -0.0001              !
 ! A16   A(6,5,14)             110.3985         -DE/DX =    0.001               !
[...]
   D17        0.17385   0.00128   0.00043  -0.00329  -0.00286   0.17099
   D18        2.22312   0.00127   0.00053  -0.00335  -0.00282   2.22030
   D19       -1.94909   0.00127   0.00021  -0.00305  -0.00284  -1.95193
   D20       -2.49642  -0.00128   0.00104  -0.00370  -0.00265  -2.49907
   D21       -0.44714  -0.00129   0.00114  -0.00376  -0.00262  -0.44976
   D22        1.66383  -0.00129   0.00083  -0.00347  -0.00264   1.66119
   D23        0.87908  -0.00003   0.00408   0.00067   0.00475   0.88383
   D24       -2.14930  -0.00197   0.00000   0.00000   0.00000  -2.14930
   D25       -1.16879  -0.00092   0.00507   0.00018   0.00525  -1.16354
   D26        2.08602  -0.00285   0.00099  -0.00050   0.00050   2.08652
   D27        3.02866  -0.00113   0.00687   0.00041   0.00728   3.03594
   D28        0.00029  -0.00307   0.00278  -0.00026   0.00253   0.00282
   D29       -0.37017   0.00106   0.01502   0.00626   0.02128  -0.34889
   D30        3.12628   0.00102   0.00749   0.00450   0.01199   3.13827
   D31        2.88613  -0.00088   0.01096   0.00559   0.01655   2.90268
   D32        0.09939  -0.00093   0.00343   0.00384   0.00727   0.10666
   D33        0.44441  -0.00001   0.01425   0.00938   0.02362   0.46803
   D34        2.52942  -0.00002   0.01183   0.00834   0.02017   2.54959
   D35       -1.67564   0.00001   0.01179   0.00849   0.02028  -1.65536
   D36       -3.04169   0.00002   0.02147   0.01100   0.03247  -3.00921
   D37       -0.95668   0.00001   0.01906   0.00996   0.02902  -0.92766
   D38        1.12145   0.00004   0.01902   0.01011   0.02913   1.15059
   D39       -2.48849  -0.00001   0.01149   0.00626   0.01775  -2.47074
   D40       -0.38840  -0.00002   0.01150   0.00602   0.01752  -0.37088
   D41        1.70405  -0.00002   0.01143   0.00601   0.01744   1.72149
   D42        0.96459   0.00003   0.00481   0.00500   0.00981   0.97440
   D43        3.06468   0.00002   0.00482   0.00476   0.00957   3.07426
   D44       -1.12605   0.00002   0.00475   0.00475   0.00950  -1.11655
   D45        1.08659   0.00000   0.00142   0.00039   0.00182   1.08840
   D46       -0.96463   0.00001   0.00129   0.00047   0.00176  -0.96287
   D47       -3.08057   0.00000   0.00136   0.00048   0.00184  -3.07873
   D48       -1.05969  -0.00001   0.00109   0.00062   0.00171  -1.05799
   D49       -3.11091   0.00000   0.00095   0.00070   0.00165  -3.10926
   D50        1.05634   0.00000   0.00102   0.00070   0.00173   1.05806
   D51       -3.07661  -0.00001   0.00132   0.00066   0.00198  -3.07463
   D52        1.15536   0.00000   0.00119   0.00073   0.00192   1.15728
   D53       -0.96058   0.00000   0.00126   0.00074   0.00200  -0.95859
   D54       -3.11799  -0.00001   0.00527  -0.00072   0.00455  -3.11344
   D55       -1.01716  -0.00001   0.00542  -0.00079   0.00463  -1.01253
   D56        1.05590  -0.00002   0.00540  -0.00083   0.00457   1.06047
   D57        3.14089  -0.00001   0.00009  -0.00057  -0.00048   3.14041
   D58       -1.06069   0.00000   0.00006  -0.00056  -0.00050  -1.06119
   D59        1.05885  -0.00001   0.00008  -0.00059  -0.00051   1.05834
         Item               Value     Threshold  Converged?
 Maximum Force            0.000255     0.000450     YES
 RMS     Force            0.000042     0.000300     YES
 Maximum Displacement     0.089786     0.001800     NO 
 RMS     Displacement     0.016470     0.001200     NO 
 Predicted change in Energy=-2.677702D-06
 GradGradGradGradGradGradGradGradGradGradGradGradGradGradGradGradGradGrad

                          Input orientation:                          
 ---------------------------------------------------------------------
 Center     Atomic      Atomic             Coordinates (Angstroms)
 Number     Number       Type             X           Y           Z
 ---------------------------------------------------------------------
      1          6           0        1.314720    2.907094    0.783198
      2          6           0        0.357944    2.340419   -0.255661
      3          8           0       -0.366773    3.073565   -0.908339
      4          7           0        0.401604    0.966053   -0.501457
      5          6           0       -0.772539    0.371773   -1.141227
      6          6           0       -1.985183    0.313298   -0.182685
      7          8           0       -2.330867    1.316616    0.425320
      8          7           0       -2.574753   -0.914741    0.064184
      9          6           0       -2.459681   -2.106569   -0.765065
     10          6           0       -3.714907   -0.937354    0.976916
     11          1           0        1.251717    3.992416    0.714924
     12          1           0        2.350776    2.594931    0.619991
     13          1           0        1.023922    2.601026    1.793817
     14          1           0       -1.062165    1.023757   -1.969832
     15          1           0       -0.481010   -0.591911   -1.553905
     16          1           0       -1.534191   -2.121338   -1.336417
     17          1           0       -2.468106   -2.994981   -0.124378
     18          1           0       -3.300143   -2.192669   -1.468917
     19          1           0       -3.663092   -1.835274    1.601548
     20          1           0       -3.681147   -0.045663    1.598987
     21          1           0       -4.666992   -0.951184    0.428782
     22          6           0        1.197665    0.039649    0.308550
     23          1           0        1.590120    0.531588    1.198300
     24          1           0        0.566024   -0.782122    0.664909
     25          6           0        2.364915   -0.540025   -0.491182
     26          1           0        3.047168    0.270401   -0.798294
     27          1           0        1.997170   -1.016359   -1.416655
     28          8           0        3.024732   -1.479050    0.332503
     29          6           0        4.152357   -2.061463   -0.287745
     30          1           0        4.588054   -2.765092    0.425265
     31          1           0        3.878823   -2.607547   -1.204276
     32          1           0        4.909499   -1.306595   -0.551006
 ---------------------------------------------------------------------
                    Distance matrix (angstroms):
                    1          2          3          4          5
     1  C    0.000000
     2  C    1.521765   0.000000
     3  O    2.390906   1.220126   0.000000
     4  N    2.500352   1.396855   2.279817   0.000000
     5  C    3.806300   2.436757   2.742000   1.463245   0.000000
     6  C    4.306979   3.099160   3.280991   2.494886   1.546845
     7  O    3.993495   2.956622   2.953503   2.906581   2.403162
     8  N    5.500127   4.393072   4.661283   3.565955   2.521132
     9  C    6.463748   5.289065   5.588791   4.206834   3.021610
    10  C    6.333598   5.371328   5.554427   4.770137   3.854591
    11  H    1.089290   2.114227   2.469570   3.370630   4.544443
    12  H    1.094301   2.191557   3.154355   2.776718   4.218936
    13  H    1.095258   2.170669   3.075544   2.885949   4.100162
    14  H    4.095817   2.586250   2.410819   2.074144   1.093413
    15  H    4.574903   3.314791   3.723643   2.076994   1.088108
    16  H    6.155826   4.965429   5.341641   3.738508   2.614156
    17  H    7.068802   6.039064   6.469733   4.905835   3.904352
    18  H    7.237166   5.949998   6.054100   4.961495   3.615595
    19  H    6.923754   6.087230   6.423547   5.365801   4.555126
    20  H    5.860288   5.044538   5.196281   4.701520   4.017839
    21  H    7.126907   6.045916   6.039733   5.498346   4.402489
    22  C    2.908820   2.513366   3.623939   1.465622   2.468575
    23  H    2.427177   2.627571   3.837839   2.119081   3.328826
    24  H    3.766279   3.262056   4.267499   2.107975   2.526926
    25  C    3.822248   3.518573   4.549085   2.474462   3.331298
    26  H    3.529114   3.436765   4.418691   2.751554   3.836409
    27  H    4.549569   3.911895   4.751220   2.704325   3.110315
    28  O    4.729221   4.695321   5.811050   3.681687   4.474002
    29  C    5.821139   5.811640   6.868492   4.824901   5.559107
    30  H    6.558699   6.665113   7.772949   5.683891   6.405449
    31  H    6.398120   6.146448   7.098429   5.035436   5.524082
    32  H    5.697167   5.839914   6.866771   5.048614   5.954061
                    6          7          8          9         10
     6  C    0.000000
     7  O    1.223035   0.000000
     8  N    1.384419   2.273511   0.000000
     9  C    2.533786   3.626542   1.456485   0.000000
    10  C    2.429146   2.701889   1.460665   2.444822   0.000000
    11  H    4.981880   4.480925   6.256638   7.291259   7.002758
    12  H    4.964945   4.856931   6.073513   6.867531   7.028296
    13  H    4.265557   3.844100   5.320029   6.390995   5.970257
    14  H    2.133216   2.726193   3.191068   3.633657   4.423384
    15  H    2.227596   3.313877   2.665744   2.613733   4.120980
    16  H    2.731655   3.944355   2.121397   1.087747   3.392469
    17  H    3.343849   4.348663   2.091490   1.095366   2.645976
    18  H    3.108598   4.103987   2.123603   1.099635   2.780277
    19  H    3.258102   3.618390   2.096510   2.668830   1.095039
    20  H    2.485860   2.248678   2.082073   3.365718   1.087762
    21  H    3.027359   3.255826   2.124082   2.762681   1.098684
    22  C    3.232138   3.754307   3.898938   4.374367   5.053179
    23  H    3.838953   4.072826   4.552390   5.216854   5.509094
    24  H    2.902933   3.585259   3.200459   3.599150   4.295092
    25  C    4.443724   5.132004   4.984893   5.079941   6.267170
    26  H    5.070046   5.613828   5.809855   5.998039   7.094765
    27  H    4.376049   5.250481   4.806838   4.634291   6.193807
    28  O    5.345763   6.042087   5.634241   5.628252   6.792013
    29  C    6.581787   7.345208   6.833215   6.629398   8.047163
    30  H    7.283786   8.033170   7.406752   7.177820   8.519631
    31  H    6.630350   7.524286   6.791407   6.373422   8.075387
    32  H    7.091992   7.762561   7.519710   7.415565   8.766485
                   11         12         13         14         15
    11  H    0.000000
    12  H    1.780423   0.000000
    13  H    1.775349   1.771566   0.000000
    14  H    4.623299   4.563325   4.583076   0.000000
    15  H    5.400553   4.785478   4.864865   1.766669   0.000000
    16  H    7.024760   6.415894   6.216351   3.242784   1.869663
    17  H    7.960228   7.417738   6.869427   4.640327   3.430284
    18  H    7.983975   7.695293   7.233428   3.950299   3.243017
    19  H    7.674856   7.533710   6.456456   5.262475   4.650643
    20  H    6.435899   6.656971   5.401907   4.554031   4.525483
    21  H    7.717005   7.865149   6.846022   4.759046   4.645704
    22  C    3.973968   2.820660   2.965949   3.356535   2.585644
    23  H    3.510769   2.273857   2.226611   4.160998   3.623046
    24  H    4.823783   3.819927   3.595802   3.585256   2.460812
    25  C    4.820468   3.326087   4.109219   4.046813   3.038315
    26  H    4.400780   2.810682   4.030432   4.338970   3.709793
    27  H    5.494283   4.161055   4.933540   3.718549   2.518009
    28  O    5.764266   4.139346   4.773437   5.316721   4.078698
    29  C    6.787378   5.074611   5.988223   6.288023   5.023030
    30  H    7.541814   5.811470   6.585681   7.212270   5.859628
    31  H    7.358295   5.720896   6.653439   6.179466   4.815928
    32  H    6.562123   4.810426   5.988773   6.565392   5.529391
                   16         17         18         19         20
    16  H    0.000000
    17  H    1.761956   0.000000
    18  H    1.772352   1.773070   0.000000
    19  H    3.639463   2.398277   3.112430   0.000000
    20  H    4.187415   3.624905   3.763886   1.789704   0.000000
    21  H    3.781485   3.052571   2.647795   1.778991   1.777988
    22  C    3.852119   4.778524   5.326623   5.367881   5.047308
    23  H    4.819141   5.536728   6.200830   5.775888   5.317896
    24  H    3.195263   3.837403   4.635742   4.457785   4.410594
    25  C    4.291620   5.433180   5.981645   6.511072   6.416234
    26  H    5.196040   6.444775   6.841403   7.431063   7.149620
    27  H    3.701071   5.052091   5.426598   6.466741   6.502279
    28  O    4.897102   5.716473   6.615014   6.816477   6.973335
    29  C    5.782744   6.687950   7.546664   8.043745   8.305841
    30  H    6.403111   7.081267   8.132604   8.386275   8.783655
    31  H    5.436412   6.449790   7.195812   8.083905   8.460181
    32  H    6.542310   7.580351   8.308184   8.854508   8.944921
                   21         22         23         24         25
    21  H    0.000000
    22  C    5.948984   0.000000
    23  H    6.476281   1.089807   0.000000
    24  H    5.241068   1.096025   1.749032   0.000000
    25  C    7.103738   1.529073   2.145463   2.152014   0.000000
    26  H    7.906089   2.167720   2.485477   3.066731   1.102985
    27  H    6.915268   2.175015   3.065912   2.536918   1.103916
    28  O    7.710417   2.375962   2.617323   2.577101   1.412652
    29  C    8.917793   3.674295   3.936661   3.925054   2.356079
    30  H    9.431126   4.401697   4.522531   4.490693   3.276149
    31  H    8.856712   4.060159   4.567789   4.219083   2.659900
    32  H    9.633041   4.040906   4.178189   4.540848   2.658217
                   26         27         28         29         30
    26  H    0.000000
    27  H    1.772178   0.000000
    28  O    2.083215   2.080750   0.000000
    29  C    2.630531   2.647926   1.412604   0.000000
    30  H    3.617409   3.628142   2.026446   1.092387   0.000000
    31  H    3.023086   2.473378   2.089178   1.101389   1.784162
    32  H    2.452824   3.052089   2.088702   1.101089   1.784278
                   31         32
    31  H    0.000000
    32  H    1.783685   0.000000
 Stoichiometry    C9H18N2O3
 Framework group  C1[X(C9H18N2O3)]
 Deg. of freedom    90
 Full point group                 C1      NOp   1
 Largest Abelian subgroup         C1      NOp   1
 Largest concise Abelian subgroup C1      NOp   1
                         Standard orientation:                         
 ---------------------------------------------------------------------
 Center     Atomic      Atomic             Coordinates (Angstroms)
 Number     Number       Type             X           Y           Z
 ---------------------------------------------------------------------
      1          6           0        1.128631    2.863972    0.859275
      2          6           0        0.250236    2.202287   -0.192564
      3          8           0       -0.505324    2.863142   -0.886182
      4          7           0        0.403219    0.829445   -0.400185
      5          6           0       -0.702625    0.133721   -1.059096
      6          6           0       -1.937814    0.008186   -0.136450
      7          8           0       -2.376062    0.997385    0.433847
      8          7           0       -2.442651   -1.254085    0.125139
      9          6           0       -2.213224   -2.453825   -0.668169
     10          6           0       -3.606764   -1.339570    1.003248
     11          1           0        0.987823    3.939571    0.760204
     12          1           0        2.189632    2.626189    0.735860
     13          1           0        0.828912    2.561736    1.868439
     14          1           0       -1.012856    0.741881   -1.913175
     15          1           0       -0.327564   -0.815256   -1.436920
     16          1           0       -1.271288   -2.413329   -1.210671
     17          1           0       -2.176563   -3.324520   -0.004563
     18          1           0       -3.021966   -2.619575   -1.394572
     19          1           0       -3.508840   -2.215635    1.652887
     20          1           0       -3.659004   -0.432966    1.602053
     21          1           0       -4.537111   -1.437820    0.427133
     22          6           0        1.239115   -0.014910    0.457947
     23          1           0        1.565340    0.526487    1.345723
     24          1           0        0.658801   -0.872646    0.816830
     25          6           0        2.471111   -0.525075   -0.290372
     26          1           0        3.101127    0.326329   -0.598214
     27          1           0        2.169510   -1.049940   -1.213510
     28          8           0        3.171699   -1.391857    0.577644
     29          6           0        4.358633   -1.903343    0.007538
     30          1           0        4.821992   -2.554892    0.751911
     31          1           0        4.155803   -2.490487   -0.901956
     32          1           0        5.065991   -1.100662   -0.252742
 ---------------------------------------------------------------------
 Rotational constants (GHZ):      0.7471317      0.4249999      0.3005974
 Standard basis: 6-31G(d,p) (6D, 7F)
 There are   300 symmetry adapted basis functions of A   symmetry.
 Integral buffers will be    131072 words long.
 Raffenetti 2 integral format.
 Two-electron integral symmetry is turned on.
   300 basis functions,   518 primitive gaussians,   300 cartesian basis functions
    55 alpha electrons       55 beta electrons
       nuclear repulsion energy       964.3046644863 Hartrees.
 NAtoms=   32 NActive=   32 NUniq=   32 SFac= 1.00D+00 NAtFMM=   60 NAOKFM=F Big=F
 One-electron integrals computed using PRISM.
 NBasis=   300 RedAO= T  NBF=   300
 NBsUse=   300 1.00D-06 NBFU=   300
 Initial guess read from the read-write file.
 B after Tr=     0.000000    0.000000    0.000000
         Rot=    1.000000    0.000000    0.000000    0.000000 Ang=   0.00 deg.
 Initial guess orbital symmetries:
       Occupied  (A) (A) (A) (A) (A) (A) (A) (A) (A) (A) (A) (A)
                 (A) (A) (A) (A) (A) (A) (A) (A) (A) (A) (A) (A)
                 (A) (A) (A) (A) (A) (A) (A) (A) (A) (A) (A) (A)
                 (A) (A) (A) (A) (A) (A) (A) (A) (A) (A) (A) (A)
                 (A) (A) (A) (A) (A) (A) (A)
       Virtual   (A) (A) (A) (A) (A) (A) (A) (A) (A) (A) (A) (A)
                 (A) (A) (A) (A) (A) (A) (A) (A) (A) (A) (A) (A)
                 (A) (A) (A) (A) (A) (A) (A) (A) (A) (A) (A) (A)
                 (A) (A) (A) (A) (A) (A) (A) (A) (A) (A) (A) (A)
                 (A) (A) (A) (A) (A) (A) (A) (A) (A) (A) (A) (A)
                 (A) (A) (A) (A) (A) (A) (A) (A) (A) (A) (A) (A)
                 (A) (A) (A) (A) (A) (A) (A) (A) (A) (A) (A) (A)
                 (A) (A) (A) (A) (A) (A) (A) (A) (A) (A) (A) (A)
                 (A) (A) (A) (A) (A) (A) (A) (A) (A) (A) (A) (A)
                 (A) (A) (A) (A) (A) (A) (A) (A) (A) (A) (A) (A)
                 (A) (A) (A) (A) (A) (A) (A) (A) (A) (A) (A) (A)
                 (A) (A) (A) (A) (A) (A) (A) (A) (A) (A) (A) (A)
                 (A) (A) (A) (A) (A) (A) (A) (A) (A) (A) (A) (A)
                 (A) (A) (A) (A) (A) (A) (A) (A) (A) (A) (A) (A)
                 (A) (A) (A) (A) (A) (A) (A) (A) (A) (A) (A) (A)
                 (A) (A) (A) (A) (A) (A) (A) (A) (A) (A) (A) (A)
                 (A) (A) (A) (A) (A) (A) (A) (A) (A) (A) (A) (A)
                 (A) (A) (A) (A) (A) (A) (A) (A) (A) (A) (A) (A)
                 (A) (A) (A) (A) (A) (A) (A) (A) (A) (A) (A) (A)
                 (A) (A) (A) (A) (A) (A) (A) (A) (A) (A) (A) (A)
                 (A) (A) (A) (A) (A)
 Harris functional with IExCor=  402 diagonalized for initial guess.
 ExpMin= 1.61D-01 ExpMax= 5.48D+03 ExpMxC= 8.25D+02 IAcc=1 IRadAn=         1 AccDes= 0.00D+00
 HarFok:  IExCor=  402 AccDes= 0.00D+00 IRadAn=         1 IDoV= 1
 ScaDFX=  1.000000  1.000000  1.000000  1.000000
 FoFCou: FMM=F IPFlag=           0 FMFlag=      100000 FMFlg1=           0
         NFxFlg=           0 DoJE=T BraDBF=F KetDBF=T FulRan=T
         Omega=  0.000000  0.000000  1.000000  0.000000  0.000000 ICntrl=     500 IOpCl=  0
         NMat0=    1 NMatS0=    1 NMatT0=    0 NMatD0=    1 NMtDS0=    0 NMtDT0=    0
         I1Cent=           4 NGrid=           0.
 Petite list used in FoFCou.
