 Entering Gaussian System, Link 0=/data/opt/apps/g09-C01/g09
 Initial command:
 /data/opt/apps/g09-C01/l1.exe /tmp/g09-tuu61186-1178323c21e64fea8x/Gau-1178457.inp -scrdir=/tmp/g09-tuu61186-1178323c21e64fea8x/
 Entering Link 1 = /data/opt/apps/g09-C01/l1.exe PID=   1178466.
  
 Copyright (c) 1988,1990,1992,1993,1995,1998,2003,2009,2011,
            Gaussian, Inc.  All Rights Reserved.
  
 This is part of the Gaussian(R) 09 program.  It is based on
 the Gaussian(R) 03 system (copyright 2003, Gaussian, Inc.),
 the Gaussian(R) 98 system (copyright 1998, Gaussian, Inc.),
 the Gaussian(R) 94 system (copyright 1995, Gaussian, Inc.),
 the Gaussian 92(TM) system (copyright 1992, Gaussian, Inc.),
 the Gaussian 90(TM) system (copyright 1990, Gaussian, Inc.),
 the Gaussian 88(TM) system (copyright 1988, Gaussian, Inc.),
 the Gaussian 86(TM) system (copyright 1986, Carnegie Mellon
 University), and the Gaussian 82(TM) system (copyright 1983,
 Carnegie Mellon University). Gaussian is a federally registered
 trademark of Gaussian, Inc.
  
 This software contains proprietary and confidential information,
 including trade secrets, belonging to Gaussian, Inc.
  
 This software is provided under written license and may be
 used, copied, transmitted, or stored only in accord with that
 written license.
  
 The following legend is applicable only to US Government
 contracts under FAR:
  
                    RESTRICTED RIGHTS LEGEND
  
 Use, reproduction and disclosure by the US Government is
 subject to restrictions as set forth in subparagraphs (a)
 and (c) of the Commercial Computer Software - Restricted
 Rights clause in FAR 52.227-19.
  
 Gaussian, Inc.
 340 Quinnipiac St., Bldg. 40, Wallingford CT 06492
  
  
 ---------------------------------------------------------------
 Warning -- This program may not be used in any manner that
 competes with the business of Gaussian, Inc. or will provide
 assistance to any competitor of Gaussian, Inc.  The licensee
 of this program is prohibited from giving any competitor of
 Gaussian, Inc. access to this program.  By using this program,
 the user acknowledges that Gaussian, Inc. is engaged in the
 business of creating and licensing software in the field of
 computational chemistry and represents and warrants to the
 licensee that it is not a competitor of Gaussian, Inc. and that
 it will not use this program in any manner prohibited above.
 ---------------------------------------------------------------
  

 Cite this work as:
 Gaussian 09, Revision C.01,
 M. J. Frisch, G. W. Trucks, H. B. Schlegel, G. E. Scuseria, 
 M. A. Robb, J. R. Cheeseman, G. Scalmani, V. Barone, B. Mennucci, 
 G. A. Petersson, H. Nakatsuji, M. Caricato, X. Li, H. P. Hratchian, 
 A. F. Izmaylov, J. Bloino, G. Zheng, J. L. Sonnenberg, M. Hada, 
 M. Ehara, K. Toyota, R. Fukuda, J. Hasegawa, M. Ishida, T. Nakajima, 
 Y. Honda, O. Kitao, H. Nakai, T. Vreven, J. A. Montgomery, Jr., 
 J. E. Peralta, F. Ogliaro, M. Bearpark, J. J. Heyd, E. Brothers, 
 K. N. Kudin, V. N. Staroverov, T. Keith, R. Kobayashi, J. Normand, 
 K. Raghavachari, A. Rendell, J. C. Burant, S. S. Iyengar, J. Tomasi, 
 M. Cossi, N. Rega, J. M. Millam, M. Klene, J. E. Knox, J. B. Cross, 
 V. Bakken, C. Adamo, J. Jaramillo, R. Gomperts, R. E. Stratmann, 
 O. Yazyev, A. J. Austin, R. Cammi, C. Pomelli, J. W. Ochterski, 
 R. L. Martin, K. Morokuma, V. G. Zakrzewski, G. A. Voth, 
 P. Salvador, J. J. Dannenberg, S. Dapprich, A. D. Daniels, 
 O. Farkas, J. B. Foresman, J. V. Ortiz, J. Cioslowski, 
 and D. J. Fox, Gaussian, Inc., Wallingford CT, 2010.
 
 ******************************************
 Gaussian 09:  EM64L-G09RevC.01 23-Sep-2011
                24-Apr-2026 
 ******************************************
 %nprocshared=8
 Will use up to    8 processors via shared memory.
 %mem=14GB
 -----------------------------------
 # opt=modredundant b3lyp/6-31g(d,p)
 -----------------------------------
 1/14=-1,18=120,19=15,26=3,38=1/1,3;
 2/9=110,12=2,17=6,18=5,40=1/2;
 3/5=1,6=6,7=101,11=2,16=1,25=1,30=1,71=1,74=-5/1,2,3;
 4//1;
 5/5=2,38=5/2;
 6/7=2,8=2,9=2,10=2,28=1/1;
 7//1,2,3,16;
 1/14=-1,18=20,19=15/3(2);
 2/9=110/2;
 99//99;
 2/9=110/2;
 3/5=1,6=6,7=101,11=2,16=1,25=1,30=1,71=1,74=-5/1,2,3;
 4/5=5,16=3/1;
 5/5=2,38=5/2;
 7//1,2,3,16;
 1/14=-1,18=20,19=15/3(-5);
 2/9=110/2;
 6/7=2,8=2,9=2,10=2,19=2,28=1/1;
 99/9=1/99;
 ---------------
 QM dihedral opt
 ---------------
 Charge =  0 Multiplicity = 1
 Symbolic Z-Matrix:
 C                     1.71888   2.78076   0.51802 
 C                     0.53171   2.13099  -0.17653 
 O                    -0.31011   2.81217  -0.75437 
 N                     0.43983   0.75538  -0.12861 
 C                    -0.73819   0.14659  -0.71434 
 C                    -1.76619  -0.26121   0.36314 
 O                    -1.51252  -0.11722   1.55443 
 N                    -2.94474  -0.80847  -0.07756 
 C                    -3.34312  -0.94399  -1.46866 
 C                    -3.94601  -1.20924   0.9012 
 H                     1.71039   3.83714   0.25194 
 H                     2.67659   2.3411    0.2252 
 H                     1.62724   2.69142   1.60574 
 H                    -1.17108   0.88383  -1.39331 
 H                    -0.44995  -0.73602  -1.29884 
 H                    -2.5458   -0.64565  -2.14582 
 H                    -3.60596  -1.98642  -1.68983 
 H                    -4.22235  -0.32233  -1.68407 
 H                    -4.21929  -2.2618    0.75738 
 H                    -3.52889  -1.07077   1.89684 
 H                    -4.85326  -0.6002    0.79888 
 C                     1.38034  -0.11462   0.57144 
 H                     1.87192   0.42904   1.37898 
 H                     0.82056  -0.92217   1.04746 
 C                     2.44159  -0.70013  -0.36325 
 H                     3.04582   0.10648  -0.8126 
 H                     1.96353  -1.24301  -1.19739 
 O                     3.24816  -1.56942   0.40388 
 C                     4.27681  -2.17721  -0.34891 
 H                     4.83471  -2.82727   0.32891 
 H                     3.87443  -2.78525  -1.17449 
 H                     4.96663  -1.43235  -0.77589 
 
 The following ModRedundant input section has been read:
 D       2       4       5       6 F                                           
 D       4       5       6       8 S  36 10.000                                

 GradGradGradGradGradGradGradGradGradGradGradGradGradGradGradGradGradGrad
 Berny optimization.
 Initialization pass.
                           ----------------------------
                           !    Initial Parameters    !
                           ! (Angstroms and Degrees)  !
 --------------------------                            --------------------------
 ! Name  Definition              Value          Derivative Info.                !
 --------------------------------------------------------------------------------
 ! R1    R(1,2)                  1.5212         estimate D2E/DX2                !
 ! R2    R(1,11)                 1.0894         estimate D2E/DX2                !
 ! R3    R(1,12)                 1.0937         estimate D2E/DX2                !
 ! R4    R(1,13)                 1.0952         estimate D2E/DX2                !
 ! R5    R(2,3)                  1.2274         estimate D2E/DX2                !
 ! R6    R(2,4)                  1.3795         estimate D2E/DX2                !
 ! R7    R(4,5)                  1.4496         estimate D2E/DX2                !
 ! R8    R(4,22)                 1.46           estimate D2E/DX2                !
 ! R9    R(5,6)                  1.544          estimate D2E/DX2                !
 ! R10   R(5,14)                 1.0918         estimate D2E/DX2                !
 ! R11   R(5,15)                 1.0971         estimate D2E/DX2                !
 ! R12   R(6,7)                  1.2265         estimate D2E/DX2                !
 ! R13   R(6,8)                  1.3721         estimate D2E/DX2                !
 ! R14   R(8,9)                  1.4534         estimate D2E/DX2                !
 ! R15   R(8,10)                 1.4564         estimate D2E/DX2                !
 ! R16   R(9,16)                 1.0878         estimate D2E/DX2                !
 ! R17   R(9,17)                 1.0976         estimate D2E/DX2                !
 ! R18   R(9,18)                 1.0981         estimate D2E/DX2                !
 ! R19   R(10,19)                1.0969         estimate D2E/DX2                !
 ! R20   R(10,20)                1.0883         estimate D2E/DX2                !
 ! R21   R(10,21)                1.0975         estimate D2E/DX2                !
 ! R22   R(22,23)                1.0906         estimate D2E/DX2                !
 ! R23   R(22,24)                1.0918         estimate D2E/DX2                !
 ! R24   R(22,25)                1.5306         estimate D2E/DX2                !
 ! R25   R(25,26)                1.1035         estimate D2E/DX2                !
 ! R26   R(25,27)                1.1041         estimate D2E/DX2                !
 ! R27   R(25,28)                1.4123         estimate D2E/DX2                !
 ! R28   R(28,29)                1.4122         estimate D2E/DX2                !
 ! R29   R(29,30)                1.0924         estimate D2E/DX2                !
 ! R30   R(29,31)                1.1015         estimate D2E/DX2                !
 ! R31   R(29,32)                1.1014         estimate D2E/DX2                !
 ! A1    A(2,1,11)             107.2538         estimate D2E/DX2                !
 ! A2    A(2,1,12)             112.9186         estimate D2E/DX2                !
 ! A3    A(2,1,13)             110.6906         estimate D2E/DX2                !
 ! A4    A(11,1,12)            109.3428         estimate D2E/DX2                !
 ! A5    A(11,1,13)            108.7248         estimate D2E/DX2                !
 ! A6    A(12,1,13)            107.84           estimate D2E/DX2                !
 ! A7    A(1,2,3)              120.8735         estimate D2E/DX2                !
 ! A8    A(1,2,4)              117.5205         estimate D2E/DX2                !
 ! A9    A(3,2,4)              121.6059         estimate D2E/DX2                !
 ! A10   A(2,4,5)              117.3138         estimate D2E/DX2                !
 ! A11   A(2,4,22)             124.6084         estimate D2E/DX2                !
 ! A12   A(5,4,22)             117.8387         estimate D2E/DX2                !
 ! A13   A(4,5,6)              111.7154         estimate D2E/DX2                !
 ! A14   A(4,5,14)             106.8525         estimate D2E/DX2                !
 ! A15   A(4,5,15)             109.8529         estimate D2E/DX2                !
 ! A16   A(6,5,14)             110.3867         estimate D2E/DX2                !
 ! A17   A(6,5,15)             109.5252         estimate D2E/DX2                !
 ! A18   A(14,5,15)            108.4258         estimate D2E/DX2                !
 ! A19   A(5,6,7)              120.6043         estimate D2E/DX2                !
 ! A20   A(5,6,8)              116.9407         estimate D2E/DX2                !
 ! A21   A(7,6,8)              122.4419         estimate D2E/DX2                !
 ! A22   A(6,8,9)              125.4551         estimate D2E/DX2                !
 ! A23   A(6,8,10)             118.9742         estimate D2E/DX2                !
 ! A24   A(9,8,10)             115.4127         estimate D2E/DX2                !
 ! A25   A(8,9,16)             111.6758         estimate D2E/DX2                !
 ! A26   A(8,9,17)             110.3094         estimate D2E/DX2                !
 ! A27   A(8,9,18)             110.759          estimate D2E/DX2                !
 ! A28   A(16,9,17)            108.0939         estimate D2E/DX2                !
 ! A29   A(16,9,18)            108.0281         estimate D2E/DX2                !
 ! A30   A(17,9,18)            107.8424         estimate D2E/DX2                !
 ! A31   A(8,10,19)            110.3171         estimate D2E/DX2                !
 ! A32   A(8,10,20)            108.4391         estimate D2E/DX2                !
 ! A33   A(8,10,21)            110.6687         estimate D2E/DX2                !
 ! A34   A(19,10,20)           109.7249         estimate D2E/DX2                !
 ! A35   A(19,10,21)           108.3197         estimate D2E/DX2                !
 ! A36   A(20,10,21)           109.3608         estimate D2E/DX2                !
 ! A37   A(4,22,23)            110.388          estimate D2E/DX2                !
 ! A38   A(4,22,24)            108.634          estimate D2E/DX2                !
 ! A39   A(4,22,25)            112.4451         estimate D2E/DX2                !
 ! A40   A(23,22,24)           106.0797         estimate D2E/DX2                !
 ! A41   A(23,22,25)           109.2899         estimate D2E/DX2                !
 ! A42   A(24,22,25)           109.8033         estimate D2E/DX2                !
 ! A43   A(22,25,26)           110.4087         estimate D2E/DX2                !
 ! A44   A(22,25,27)           110.4404         estimate D2E/DX2                !
 ! A45   A(22,25,28)           107.441          estimate D2E/DX2                !
 ! A46   A(26,25,27)           106.7897         estimate D2E/DX2                !
 ! A47   A(26,25,28)           111.0013         estimate D2E/DX2                !
 ! A48   A(27,25,28)           110.7929         estimate D2E/DX2                !
 ! A49   A(25,28,29)           113.0385         estimate D2E/DX2                !
 ! A50   A(28,29,30)           107.2998         estimate D2E/DX2                !
 ! A51   A(28,29,31)           111.7804         estimate D2E/DX2                !
 ! A52   A(28,29,32)           111.8278         estimate D2E/DX2                !
 ! A53   A(30,29,31)           108.8537         estimate D2E/DX2                !
 ! A54   A(30,29,32)           108.8529         estimate D2E/DX2                !
 ! A55   A(31,29,32)           108.1543         estimate D2E/DX2                !
 ! D1    D(11,1,2,3)            -8.5024         estimate D2E/DX2                !
 ! D2    D(11,1,2,4)           171.6019         estimate D2E/DX2                !
 ! D3    D(12,1,2,3)          -129.0242         estimate D2E/DX2                !
 ! D4    D(12,1,2,4)            51.0801         estimate D2E/DX2                !
 ! D5    D(13,1,2,3)           109.9629         estimate D2E/DX2                !
 ! D6    D(13,1,2,4)           -69.9328         estimate D2E/DX2                !
 ! D7    D(1,2,4,5)            176.0014         estimate D2E/DX2                !
 ! D8    D(1,2,4,22)             1.757          estimate D2E/DX2                !
 ! D9    D(3,2,4,5)             -3.8935         estimate D2E/DX2                !
 ! D10   D(3,2,4,22)          -178.1379         estimate D2E/DX2                !
 ! D11   D(2,4,5,6)           -101.3301         Frozen                          !
 ! D12   D(2,4,5,14)            19.4958         estimate D2E/DX2                !
 ! D13   D(2,4,5,15)           136.9153         estimate D2E/DX2                !
 ! D14   D(22,4,5,6)            73.314          estimate D2E/DX2                !
 ! D15   D(22,4,5,14)         -165.8601         estimate D2E/DX2                !
 ! D16   D(22,4,5,15)          -48.4407         estimate D2E/DX2                !
 ! D17   D(2,4,22,23)           24.9905         estimate D2E/DX2                !
 ! D18   D(2,4,22,24)          140.913          estimate D2E/DX2                !
 ! D19   D(2,4,22,25)          -97.3425         estimate D2E/DX2                !
 ! D20   D(5,4,22,23)         -149.2262         estimate D2E/DX2                !
 ! D21   D(5,4,22,24)          -33.3037         estimate D2E/DX2                !
 ! D22   D(5,4,22,25)           88.4408         estimate D2E/DX2                !
 ! D23   D(4,5,6,7)             -3.416          estimate D2E/DX2                !
 ! D24   D(4,5,6,8)            177.8702         Scan                            !
 ! D25   D(14,5,6,7)          -122.1611         estimate D2E/DX2                !
 ! D26   D(14,5,6,8)            59.1251         estimate D2E/DX2                !
 ! D27   D(15,5,6,7)           118.5274         estimate D2E/DX2                !
 ! D28   D(15,5,6,8)           -60.1864         estimate D2E/DX2                !
 ! D29   D(5,6,8,9)             -4.7985         estimate D2E/DX2                !
 ! D30   D(5,6,8,10)           179.9913         estimate D2E/DX2                !
 ! D31   D(7,6,8,9)            176.5133         estimate D2E/DX2                !
 ! D32   D(7,6,8,10)             1.3031         estimate D2E/DX2                !
 ! D33   D(6,8,9,16)             5.6652         estimate D2E/DX2                !
 ! D34   D(6,8,9,17)           125.8944         estimate D2E/DX2                !
 ! D35   D(6,8,9,18)          -114.7863         estimate D2E/DX2                !
 ! D36   D(10,8,9,16)         -178.9736         estimate D2E/DX2                !
 ! D37   D(10,8,9,17)          -58.7445         estimate D2E/DX2                !
 ! D38   D(10,8,9,18)           60.5749         estimate D2E/DX2                !
 ! D39   D(6,8,10,19)         -125.0037         estimate D2E/DX2                !
 ! D40   D(6,8,10,20)           -4.8171         estimate D2E/DX2                !
 ! D41   D(6,8,10,21)          115.1349         estimate D2E/DX2                !
 ! D42   D(9,8,10,19)           59.3149         estimate D2E/DX2                !
 ! D43   D(9,8,10,20)          179.5015         estimate D2E/DX2                !
 ! D44   D(9,8,10,21)          -60.5465         estimate D2E/DX2                !
 ! D45   D(4,22,25,26)          61.6568         estimate D2E/DX2                !
 ! D46   D(4,22,25,27)         -56.2209         estimate D2E/DX2                !
 ! D47   D(4,22,25,28)        -177.1643         estimate D2E/DX2                !
 ! D48   D(23,22,25,26)        -61.2947         estimate D2E/DX2                !
 ! D49   D(23,22,25,27)       -179.1724         estimate D2E/DX2                !
 ! D50   D(23,22,25,28)         59.8842         estimate D2E/DX2                !
 ! D51   D(24,22,25,26)       -177.2662         estimate D2E/DX2                !
 ! D52   D(24,22,25,27)         64.8561         estimate D2E/DX2                !
 ! D53   D(24,22,25,28)        -56.0873         estimate D2E/DX2                !
 ! D54   D(22,25,28,29)       -179.8751         estimate D2E/DX2                !
 ! D55   D(26,25,28,29)        -59.069          estimate D2E/DX2                !
 ! D56   D(27,25,28,29)         59.4037         estimate D2E/DX2                !
 ! D57   D(25,28,29,30)       -179.7416         estimate D2E/DX2                !
 ! D58   D(25,28,29,31)        -60.4709         estimate D2E/DX2                !
 ! D59   D(25,28,29,32)         60.9611         estimate D2E/DX2                !
 --------------------------------------------------------------------------------
 Trust Radius=3.00D-01 FncErr=1.00D-07 GrdErr=1.00D-06
 Number of optimizations in scan=  37
 Number of steps in this run=    155 maximum allowed number of steps=    192.
 GradGradGradGradGradGradGradGradGradGradGradGradGradGradGradGradGradGrad

                          Input orientation:                          
 ---------------------------------------------------------------------
 Center     Atomic      Atomic             Coordinates (Angstroms)
 Number     Number       Type             X           Y           Z
 ---------------------------------------------------------------------
      1          6           0        1.718875    2.780760    0.518020
      2          6           0        0.531710    2.130987   -0.176529
      3          8           0       -0.310109    2.812168   -0.754368
      4          7           0        0.439830    0.755376   -0.128612
      5          6           0       -0.738191    0.146589   -0.714336
      6          6           0       -1.766185   -0.261205    0.363143
      7          8           0       -1.512516   -0.117224    1.554427
      8          7           0       -2.944739   -0.808465   -0.077561
      9          6           0       -3.343122   -0.943993   -1.468660
     10          6           0       -3.946011   -1.209235    0.901195
     11          1           0        1.710393    3.837135    0.251936
     12          1           0        2.676586    2.341101    0.225202
     13          1           0        1.627242    2.691419    1.605743
     14          1           0       -1.171077    0.883827   -1.393312
     15          1           0       -0.449953   -0.736018   -1.298844
     16          1           0       -2.545799   -0.645648   -2.145823
     17          1           0       -3.605961   -1.986417   -1.689831
     18          1           0       -4.222353   -0.322329   -1.684072
     19          1           0       -4.219291   -2.261802    0.757381
     20          1           0       -3.528891   -1.070771    1.896836
     21          1           0       -4.853259   -0.600202    0.798878
     22          6           0        1.380337   -0.114619    0.571439
     23          1           0        1.871921    0.429035    1.378980
     24          1           0        0.820557   -0.922171    1.047464
     25          6           0        2.441589   -0.700131   -0.363253
     26          1           0        3.045816    0.106477   -0.812603
     27          1           0        1.963528   -1.243012   -1.197394
     28          8           0        3.248158   -1.569420    0.403878
     29          6           0        4.276808   -2.177208   -0.348911
     30          1           0        4.834714   -2.827266    0.328911
     31          1           0        3.874434   -2.785253   -1.174488
     32          1           0        4.966627   -1.432345   -0.775889
 ---------------------------------------------------------------------
                    Distance matrix (angstroms):
                    1          2          3          4          5
     1  C    0.000000
     2  C    1.521172   0.000000
     3  O    2.395148   1.227422   0.000000
     4  N    2.481183   1.379508   2.276922   0.000000
     5  C    3.807195   2.416551   2.700031   1.449630   0.000000
     6  C    4.628518   3.360677   3.579750   2.478258   1.544030
     7  O    4.462548   3.497073   3.918884   2.721343   2.411734
     8  N    5.914943   4.553666   4.528612   3.728741   2.487260
     9  C    6.591244   5.112673   4.880382   4.358246   2.923019
    10  C    6.939583   5.689337   5.668541   4.914855   3.839050
    11  H    1.089404   2.117503   2.479039   3.355054   4.533142
    12  H    1.093733   2.192266   3.178334   2.764559   4.166451
    13  H    1.095226   2.165818   3.055820   2.857656   4.177822
    14  H    3.950110   2.436278   2.206358   2.052069   1.091750
    15  H    4.513595   3.231559   3.592441   2.094138   1.097144
    16  H    6.084717   4.588996   4.346372   3.866004   2.438081
    17  H    7.480271   6.030209   5.896113   5.130620   3.704782
    18  H    7.055251   5.558108   5.098536   5.031586   3.646869
    19  H    7.794007   6.537644   6.581205   5.621010   4.481557
    20  H    6.653907   5.571228   5.697952   4.815392   4.011009
    21  H    7.396129   6.116265   5.890421   5.542077   4.447617
    22  C    2.915593   2.514432   3.630627   1.459971   2.491908
    23  H    2.509041   2.666911   3.871918   2.104808   3.357742
    24  H    3.846945   3.302024   4.297708   2.083812   2.583773
    25  C    3.662726   3.420195   4.478957   2.486080   3.309259
    26  H    3.268504   3.289979   4.311193   2.771295   3.785495
    27  H    4.381009   3.804752   4.670137   2.730843   3.076300
    28  O    4.612570   4.626983   5.762041   3.684417   4.481748
    29  C    5.645887   5.711044   6.789556   4.834354   5.539294
    30  H    6.418268   6.584496   7.710118   5.688555   6.402300
    31  H    6.204153   6.028196   7.001287   5.042461   5.484865
    32  H    5.474701   5.720582   6.772023   5.069219   5.919609
                    6          7          8          9         10
     6  C    0.000000
     7  O    1.226473   0.000000
     8  N    1.372116   2.278697   0.000000
     9  C    2.511659   3.629562   1.453352   0.000000
    10  C    2.437191   2.746106   1.456408   2.459683   0.000000
    11  H    5.375440   5.265034   6.584863   7.166425   7.608041
    12  H    5.150654   5.035750   6.450638   7.063844   7.544577
    13  H    4.666625   4.212979   5.998809   6.882782   6.839052
    14  H    2.179538   3.131749   2.782253   2.839786   4.164844
    15  H    2.172583   3.106944   2.778622   2.905601   4.157707
    16  H    2.655279   3.877983   2.112669   1.087788   3.400374
    17  H    3.252051   4.289709   2.103378   1.097565   2.726364
    18  H    3.198060   4.227666   2.109385   1.098142   2.747103
    19  H    3.189912   3.544168   2.105659   2.731218   1.096933
    20  H    2.472801   2.256605   2.075640   3.373003   1.088330
    21  H    3.136050   3.459001   2.110442   2.745985   1.097492
    22  C    3.156814   3.055302   4.428194   5.211615   5.447651
    23  H    3.839814   3.432724   5.182001   6.098437   6.063047
    24  H    2.756158   2.519560   3.931420   4.864934   4.777444
    25  C    4.292513   4.433083   5.394987   5.894427   6.531420
    26  H    4.967185   5.141134   6.104437   6.507874   7.318049
    27  H    4.160526   4.574145   5.053112   5.321986   6.271193
    28  O    5.182347   5.108488   6.258020   6.880591   7.220327
    29  C    6.379330   6.432923   7.355123   7.799871   8.373439
    30  H    7.082211   7.009532   8.047401   8.582248   8.946880
    31  H    6.368022   6.601862   7.184153   7.454521   8.243279
    32  H    6.928183   7.009937   7.966593   8.352865   9.071797
                   11         12         13         14         15
    11  H    0.000000
    12  H    1.781112   0.000000
    13  H    1.775492   1.769107   0.000000
    14  H    4.442042   4.421283   4.482445   0.000000
    15  H    5.290155   4.643988   4.949615   1.775624   0.000000
    16  H    6.630216   6.466509   6.528747   2.189846   2.262324
    17  H    8.120827   7.865441   7.754313   3.775564   3.417127
    18  H    7.499783   7.637706   7.356855   3.293879   3.814517
    19  H    8.521365   8.308011   7.709479   4.879761   4.556752
    20  H    7.365007   7.276206   6.389407   4.494977   4.450201
    21  H    7.941702   8.104254   7.313186   4.535031   4.879343
    22  C    3.978364   2.798339   3.000766   3.371477   2.689620
    23  H    3.593253   2.373749   2.286847   4.141531   3.730843
    24  H    4.906696   3.843163   3.744389   3.631201   2.674698
    25  C    4.636797   3.106541   4.005336   4.076923   3.039348
    26  H    4.102975   2.491368   3.813486   4.327087   3.628585
    27  H    5.288906   3.921492   4.842563   3.793096   2.468243
    28  O    5.623046   3.956108   4.714509   5.364508   4.155700
    29  C    6.566569   4.827570   5.877449   6.335626   5.032064
    30  H    7.360812   5.601811   6.509536   7.266897   5.911904
    31  H    7.111525   5.447337   6.540145   6.242372   4.786977
    32  H    6.279085   4.526076   5.816278   6.589179   5.486136
                   16         17         18         19         20
    16  H    0.000000
    17  H    1.769049   0.000000
    18  H    1.768780   1.774588   0.000000
    19  H    3.720366   2.537884   3.118054   0.000000
    20  H    4.182140   3.702503   3.723434   1.787055   0.000000
    21  H    3.741350   3.109826   2.576877   1.778919   1.783507
    22  C    4.804170   5.786202   6.043228   6.000067   5.174111
    23  H    5.752863   6.727496   6.861998   6.688038   5.629064
    24  H    4.648215   5.312200   5.766458   5.222914   4.434097
    25  C    5.296656   6.323543   6.804074   6.932673   6.394686
    26  H    5.797355   7.028220   7.332777   7.800986   7.207895
    27  H    4.646546   5.640421   6.272929   6.564018   6.306393
    28  O    6.397208   7.178889   7.856418   7.507806   6.957440
    29  C    7.219594   7.998282   8.801078   8.568240   8.197348
    30  H    8.084290   8.719366   9.610269   9.081759   8.688703
    31  H    6.836724   7.540559   8.478421   8.337536   8.196444
    32  H    7.676728   8.638955   9.300230   9.349867   8.913362
                   21         22         23         24         25
    21  H    0.000000
    22  C    6.256616   0.000000
    23  H    6.828169   1.090567   0.000000
    24  H    5.688378   1.091830   1.743854   0.000000
    25  C    7.387513   1.530598   2.152885   2.160363   0.000000
    26  H    8.092691   2.176758   2.507012   3.077295   1.103459
    27  H    7.132103   2.177648   3.072757   2.539431   1.104107
    28  O    8.168743   2.373453   2.615086   2.593527   1.412341
    29  C    9.336085   3.672991   3.944818   3.933275   2.355842
    30  H    9.951759   4.398863   4.525957   4.501018   3.275796
    31  H    9.210931   4.049823   4.567483   4.211212   2.656855
    32  H    9.980106   4.051317   4.205401   4.557937   2.661245
                   26         27         28         29         30
    26  H    0.000000
    27  H    1.772155   0.000000
    28  O    2.080721   2.078675   0.000000
    29  C    2.635445   2.635130   1.412168   0.000000
    30  H    3.620781   3.617067   2.026069   1.092372   0.000000
    31  H    3.029797   2.455727   2.088471   1.101454   1.784408
    32  H    2.461470   3.038440   2.088965   1.101354   1.784317
                   31         32
    31  H    0.000000
    32  H    1.783852   0.000000
 Stoichiometry    C9H18N2O3
 Framework group  C1[X(C9H18N2O3)]
 Deg. of freedom    90
 Full point group                 C1      NOp   1
 Largest Abelian subgroup         C1      NOp   1
 Largest concise Abelian subgroup C1      NOp   1
                         Standard orientation:                         
 ---------------------------------------------------------------------
 Center     Atomic      Atomic             Coordinates (Angstroms)
 Number     Number       Type             X           Y           Z
 ---------------------------------------------------------------------
      1          6           0       -1.718875    2.780760   -0.518020
      2          6           0       -0.531710    2.130987    0.176529
      3          8           0        0.310109    2.812168    0.754368
      4          7           0       -0.439830    0.755376    0.128612
      5          6           0        0.738191    0.146589    0.714336
      6          6           0        1.766185   -0.261205   -0.363143
      7          8           0        1.512516   -0.117224   -1.554427
      8          7           0        2.944739   -0.808465    0.077561
      9          6           0        3.343122   -0.943993    1.468660
     10          6           0        3.946011   -1.209235   -0.901195
     11          1           0       -1.710393    3.837135   -0.251936
     12          1           0       -2.676586    2.341101   -0.225202
     13          1           0       -1.627242    2.691419   -1.605743
     14          1           0        1.171077    0.883827    1.393312
     15          1           0        0.449953   -0.736018    1.298844
     16          1           0        2.545799   -0.645648    2.145823
     17          1           0        3.605961   -1.986417    1.689831
     18          1           0        4.222353   -0.322329    1.684072
     19          1           0        4.219291   -2.261802   -0.757381
     20          1           0        3.528891   -1.070771   -1.896836
     21          1           0        4.853259   -0.600202   -0.798878
     22          6           0       -1.380337   -0.114619   -0.571439
     23          1           0       -1.871921    0.429035   -1.378980
     24          1           0       -0.820557   -0.922171   -1.047464
     25          6           0       -2.441589   -0.700131    0.363253
     26          1           0       -3.045816    0.106477    0.812603
     27          1           0       -1.963528   -1.243012    1.197394
     28          8           0       -3.248158   -1.569420   -0.403878
     29          6           0       -4.276808   -2.177208    0.348911
     30          1           0       -4.834714   -2.827266   -0.328911
     31          1           0       -3.874434   -2.785253    1.174488
     32          1           0       -4.966627   -1.432345    0.775889
 ---------------------------------------------------------------------
 Rotational constants (GHZ):      0.8197472      0.3691601      0.2938991
 Standard basis: 6-31G(d,p) (6D, 7F)
 There are   300 symmetry adapted basis functions of A   symmetry.
 Integral buffers will be    131072 words long.
 Raffenetti 2 integral format.
 Two-electron integral symmetry is turned on.
   300 basis functions,   518 primitive gaussians,   300 cartesian basis functions
    55 alpha electrons       55 beta electrons
       nuclear repulsion energy       957.3180458856 Hartrees.
 NAtoms=   32 NActive=   32 NUniq=   32 SFac= 1.00D+00 NAtFMM=   60 NAOKFM=F Big=F
 One-electron integrals computed using PRISM.
 NBasis=   300 RedAO= T  NBF=   300
 NBsUse=   300 1.00D-06 NBFU=   300
 Harris functional with IExCor=  402 diagonalized for initial guess.
 ExpMin= 1.61D-01 ExpMax= 5.48D+03 ExpMxC= 8.25D+02 IAcc=1 IRadAn=         1 AccDes= 0.00D+00
 HarFok:  IExCor=  402 AccDes= 0.00D+00 IRadAn=         1 IDoV= 1
 ScaDFX=  1.000000  1.000000  1.000000  1.000000
 FoFCou: FMM=F IPFlag=           0 FMFlag=      100000 FMFlg1=           0
         NFxFlg=           0 DoJE=T BraDBF=F KetDBF=T FulRan=T
         Omega=  0.000000  0.000000  1.000000  0.000000  0.000000 ICntrl=     500 IOpCl=  0
         NMat0=    1 NMatS0=    1 NMatT0=    0 NMatD0=    1 NMtDS0=    0 NMtDT0=    0
         I1Cent=           4 NGrid=           0.
 Petite list used in FoFCou.
 Initial guess orbital symmetries:
       Occupied  (A) (A) (A) (A) (A) (A) (A) (A) (A) (A) (A) (A)
                 (A) (A) (A) (A) (A) (A) (A) (A) (A) (A) (A) (A)
                 (A) (A) (A) (A) (A) (A) (A) (A) (A) (A) (A) (A)
                 (A) (A) (A) (A) (A) (A) (A) (A) (A) (A) (A) (A)
                 (A) (A) (A) (A) (A) (A) (A)
       Virtual   (A) (A) (A) (A) (A) (A) (A) (A) (A) (A) (A) (A)
                 (A) (A) (A) (A) (A) (A) (A) (A) (A) (A) (A) (A)
                 (A) (A) (A) (A) (A) (A) (A) (A) (A) (A) (A) (A)
                 (A) (A) (A) (A) (A) (A) (A) (A) (A) (A) (A) (A)
                 (A) (A) (A) (A) (A) (A) (A) (A) (A) (A) (A) (A)
                 (A) (A) (A) (A) (A) (A) (A) (A) (A) (A) (A) (A)
                 (A) (A) (A) (A) (A) (A) (A) (A) (A) (A) (A) (A)
                 (A) (A) (A) (A) (A) (A) (A) (A) (A) (A) (A) (A)
                 (A) (A) (A) (A) (A) (A) (A) (A) (A) (A) (A) (A)
                 (A) (A) (A) (A) (A) (A) (A) (A) (A) (A) (A) (A)
                 (A) (A) (A) (A) (A) (A) (A) (A) (A) (A) (A) (A)
                 (A) (A) (A) (A) (A) (A) (A) (A) (A) (A) (A) (A)
                 (A) (A) (A) (A) (A) (A) (A) (A) (A) (A) (A) (A)
                 (A) (A) (A) (A) (A) (A) (A) (A) (A) (A) (A) (A)
                 (A) (A) (A) (A) (A) (A) (A) (A) (A) (A) (A) (A)
                 (A) (A) (A) (A) (A) (A) (A) (A) (A) (A) (A) (A)
                 (A) (A) (A) (A) (A) (A) (A) (A) (A) (A) (A) (A)
                 (A) (A) (A) (A) (A) (A) (A) (A) (A) (A) (A) (A)
                 (A) (A) (A) (A) (A) (A) (A) (A) (A) (A) (A) (A)
                 (A) (A) (A) (A) (A) (A) (A) (A) (A) (A) (A) (A)
                 (A) (A) (A) (A) (A)
 The electronic state of the initial guess is 1-A.
 Requested convergence on RMS density matrix=1.00D-08 within 128 cycles.
 Requested convergence on MAX density matrix=1.00D-06.
 Requested convergence on             energy=1.00D-06.
 No special actions if energy rises.
 Keep R1 ints in memory in canonical form, NReq=1033484936.
 Integral accuracy reduced to 1.0D-05 until final iterations.
 Initial convergence to 1.0D-05 achieved.  Increase integral accuracy.
 SCF Done:  E(RB3LYP) =  -688.997485483     A.U. after   14 cycles
             Convg  =    0.7120D-08             -V/T =  2.0093

 **********************************************************************

            Population analysis using the SCF density.

 **********************************************************************

 Orbital symmetries:
       Occupied  (A) (A) (A) (A) (A) (A) (A) (A) (A) (A) (A) (A)
                 (A) (A) (A) (A) (A) (A) (A) (A) (A) (A) (A) (A)
                 (A) (A) (A) (A) (A) (A) (A) (A) (A) (A) (A) (A)
                 (A) (A) (A) (A) (A) (A) (A) (A) (A) (A) (A) (A)
                 (A) (A) (A) (A) (A) (A) (A)
       Virtual   (A) (A) (A) (A) (A) (A) (A) (A) (A) (A) (A) (A)
                 (A) (A) (A) (A) (A) (A) (A) (A) (A) (A) (A) (A)
                 (A) (A) (A) (A) (A) (A) (A) (A) (A) (A) (A) (A)
                 (A) (A) (A) (A) (A) (A) (A) (A) (A) (A) (A) (A)
                 (A) (A) (A) (A) (A) (A) (A) (A) (A) (A) (A) (A)
                 (A) (A) (A) (A) (A) (A) (A) (A) (A) (A) (A) (A)
                 (A) (A) (A) (A) (A) (A) (A) (A) (A) (A) (A) (A)
                 (A) (A) (A) (A) (A) (A) (A) (A) (A) (A) (A) (A)
                 (A) (A) (A) (A) (A) (A) (A) (A) (A) (A) (A) (A)
                 (A) (A) (A) (A) (A) (A) (A) (A) (A) (A) (A) (A)
                 (A) (A) (A) (A) (A) (A) (A) (A) (A) (A) (A) (A)
                 (A) (A) (A) (A) (A) (A) (A) (A) (A) (A) (A) (A)
                 (A) (A) (A) (A) (A) (A) (A) (A) (A) (A) (A) (A)
                 (A) (A) (A) (A) (A) (A) (A) (A) (A) (A) (A) (A)
                 (A) (A) (A) (A) (A) (A) (A) (A) (A) (A) (A) (A)
                 (A) (A) (A) (A) (A) (A) (A) (A) (A) (A) (A) (A)
                 (A) (A) (A) (A) (A) (A) (A) (A) (A) (A) (A) (A)
                 (A) (A) (A) (A) (A) (A) (A) (A) (A) (A) (A) (A)
                 (A) (A) (A) (A) (A) (A) (A) (A) (A) (A) (A) (A)
                 (A) (A) (A) (A) (A) (A) (A) (A) (A) (A) (A) (A)
                 (A) (A) (A) (A) (A)
 The electronic state is 1-A.
 Alpha  occ. eigenvalues --  -19.15458 -19.10955 -19.10248 -14.36806 -14.35962
 Alpha  occ. eigenvalues --  -10.28474 -10.27998 -10.23743 -10.23277 -10.23074
 Alpha  occ. eigenvalues --  -10.22621 -10.21852 -10.21366 -10.18489  -1.03866
 Alpha  occ. eigenvalues --   -1.03319  -1.02157  -0.93469  -0.92772  -0.77090
 Alpha  occ. eigenvalues --   -0.75186  -0.72954  -0.71537  -0.68450  -0.66820
 Alpha  occ. eigenvalues --   -0.62274  -0.56323  -0.53301  -0.50987  -0.50207
 Alpha  occ. eigenvalues --   -0.49451  -0.48140  -0.47162  -0.47110  -0.46136
 Alpha  occ. eigenvalues --   -0.45019  -0.43276  -0.42339  -0.41608  -0.40991
 Alpha  occ. eigenvalues --   -0.40744  -0.40602  -0.38978  -0.38594  -0.38325
 Alpha  occ. eigenvalues --   -0.37386  -0.35915  -0.35156  -0.34638  -0.32486
 Alpha  occ. eigenvalues --   -0.26156  -0.25359  -0.24349  -0.24016  -0.23184
 Alpha virt. eigenvalues --    0.02811   0.03331   0.07474   0.08549   0.09366
 Alpha virt. eigenvalues --    0.10735   0.11713   0.13150   0.13709   0.14416
 Alpha virt. eigenvalues --    0.14638   0.15463   0.15826   0.16386   0.16505
 Alpha virt. eigenvalues --    0.16712   0.17540   0.17761   0.18232   0.19250
 Alpha virt. eigenvalues --    0.20284   0.21186   0.21675   0.22249   0.23400
 Alpha virt. eigenvalues --    0.23673   0.25821   0.28413   0.29003   0.33481
 Alpha virt. eigenvalues --    0.34903   0.38701   0.40012   0.48236   0.49206
 Alpha virt. eigenvalues --    0.49720   0.50042   0.50781   0.51582   0.52963
 Alpha virt. eigenvalues --    0.54587   0.55810   0.55953   0.56115   0.57616
 Alpha virt. eigenvalues --    0.59312   0.60668   0.61100   0.64190   0.64434
 Alpha virt. eigenvalues --    0.66186   0.67913   0.69180   0.70552   0.71525
 Alpha virt. eigenvalues --    0.71883   0.73855   0.74863   0.76044   0.76848
 Alpha virt. eigenvalues --    0.77872   0.79121   0.79859   0.81311   0.82375
 Alpha virt. eigenvalues --    0.83725   0.83828   0.85324   0.85687   0.85778
 Alpha virt. eigenvalues --    0.86665   0.87541   0.88178   0.89321   0.90026
 Alpha virt. eigenvalues --    0.91114   0.91344   0.92835   0.93696   0.94151
 Alpha virt. eigenvalues --    0.95851   0.96761   0.97739   0.98281   1.00659
 Alpha virt. eigenvalues --    1.01551   1.03119   1.03945   1.05040   1.11045
 Alpha virt. eigenvalues --    1.13848   1.15700   1.17503   1.19591   1.20771
 Alpha virt. eigenvalues --    1.27500   1.29150   1.29685   1.31123   1.33151
 Alpha virt. eigenvalues --    1.34285   1.36228   1.36792   1.37420   1.38749
 Alpha virt. eigenvalues --    1.39731   1.45071   1.47528   1.50234   1.53967
 Alpha virt. eigenvalues --    1.55692   1.58028   1.61799   1.63212   1.66073
 Alpha virt. eigenvalues --    1.68393   1.69838   1.71576   1.73545   1.74786
 Alpha virt. eigenvalues --    1.75887   1.77016   1.78731   1.79615   1.82336
 Alpha virt. eigenvalues --    1.83556   1.85370   1.86286   1.87602   1.88168
 Alpha virt. eigenvalues --    1.88674   1.89753   1.91070   1.91980   1.93831
 Alpha virt. eigenvalues --    1.95904   1.97300   1.98473   1.99963   2.00315
 Alpha virt. eigenvalues --    2.01881   2.02043   2.02730   2.02877   2.03017
 Alpha virt. eigenvalues --    2.03353   2.03531   2.04851   2.05125   2.07602
 Alpha virt. eigenvalues --    2.07733   2.08601   2.10141   2.10588   2.11098
 Alpha virt. eigenvalues --    2.13365   2.13922   2.15616   2.17405   2.20330
 Alpha virt. eigenvalues --    2.22506   2.23927   2.25993   2.26292   2.29453
 Alpha virt. eigenvalues --    2.30320   2.33660   2.35642   2.38482   2.40836
 Alpha virt. eigenvalues --    2.41198   2.43955   2.44995   2.49761   2.50740
 Alpha virt. eigenvalues --    2.52137   2.53608   2.54066   2.56461   2.57130
 Alpha virt. eigenvalues --    2.58656   2.59885   2.62221   2.63334   2.64624
 Alpha virt. eigenvalues --    2.65459   2.66911   2.68868   2.69010   2.69712
 Alpha virt. eigenvalues --    2.70800   2.71444   2.75162   2.78397   2.79008
 Alpha virt. eigenvalues --    2.80407   2.82621   2.83591   2.84811   2.86659
 Alpha virt. eigenvalues --    2.87916   2.88726   2.90156   2.90854   2.92332
 Alpha virt. eigenvalues --    2.96472   2.97561   2.98592   3.04840   3.09766
 Alpha virt. eigenvalues --    3.12268   3.13498   3.14523   3.17182   3.18096
 Alpha virt. eigenvalues --    3.23168   3.26923   3.28156   3.32881   3.36830
 Alpha virt. eigenvalues --    3.37211   3.38490   3.41930   3.42804   3.43250
 Alpha virt. eigenvalues --    3.43621   3.43718   3.46403   3.48444   3.49409
 Alpha virt. eigenvalues --    3.55774   3.95263   4.00795   4.06869   4.12962
 Alpha virt. eigenvalues --    4.19150   4.32359   4.38435   4.40314   4.45142
 Alpha virt. eigenvalues --    4.49164   4.52029   4.64286   4.68597   4.74487
          Condensed to atoms (all electrons):
              1          2          3          4          5          6
     1  C    5.157290   0.348530  -0.081268  -0.120726   0.006115  -0.000186
     2  C    0.348530   4.353364   0.588640   0.258583  -0.032105   0.000923
     3  O   -0.081268   0.588640   8.076635  -0.097378  -0.011556  -0.000355
     4  N   -0.120726   0.258583  -0.097378   7.082775   0.290450  -0.049710
     5  C    0.006115  -0.032105  -0.011556   0.290450   5.118570   0.296425
     6  C   -0.000186   0.000923  -0.000355  -0.049710   0.296425   4.420539
     7  O   -0.000072   0.003888  -0.000169  -0.002529  -0.090920   0.582206
     8  N   -0.000001   0.000084  -0.000044   0.002761  -0.112543   0.273582
     9  C    0.000000  -0.000011   0.000011   0.000336  -0.000542  -0.027383
    10  C    0.000000  -0.000002   0.000001  -0.000095   0.005363  -0.026182
    11  H    0.367941  -0.023362   0.005110   0.004612  -0.000134   0.000001
    12  H    0.355977  -0.020017   0.002136   0.001685  -0.000178   0.000002
    13  H    0.366872  -0.021666   0.000754   0.001850  -0.000254   0.000042
    14  H    0.001385  -0.003958   0.031120  -0.038918   0.359412  -0.023626
    15  H   -0.000115   0.004257   0.000836  -0.043464   0.362413  -0.038340
    16  H   -0.000001  -0.000044  -0.000055   0.000161   0.009123  -0.010036
    17  H    0.000000   0.000000   0.000000  -0.000006  -0.000353   0.001578
    18  H    0.000000   0.000004   0.000000  -0.000007  -0.000302   0.000200
    19  H    0.000000   0.000000   0.000000   0.000001  -0.000117   0.001895
    20  H    0.000000  -0.000003   0.000000  -0.000011   0.001211  -0.002540
    21  H    0.000000   0.000000   0.000000   0.000002  -0.000111   0.000096
    22  C    0.000290  -0.024017   0.002493   0.248803  -0.043845  -0.004313
    23  H    0.007807  -0.009009   0.000101  -0.028499   0.004280   0.000148
    24  H   -0.000313   0.002768  -0.000070  -0.032499  -0.004434   0.004247
    25  C   -0.001800  -0.000190  -0.000034  -0.054709  -0.004006   0.000107
    26  H   -0.000808   0.001782  -0.000048   0.003144   0.000104  -0.000009
    27  H    0.000117  -0.000145  -0.000002   0.001894   0.000607   0.000160
    28  O    0.000007   0.000014   0.000000   0.002152   0.000014   0.000001
    29  C    0.000000  -0.000002   0.000000  -0.000129  -0.000001   0.000000
    30  H    0.000000   0.000000   0.000000   0.000001   0.000000   0.000000
    31  H    0.000000   0.000000   0.000000   0.000012  -0.000003   0.000000
    32  H   -0.000002   0.000000   0.000000   0.000008   0.000000   0.000000
              7          8          9         10         11         12
     1  C   -0.000072  -0.000001   0.000000   0.000000   0.367941   0.355977
     2  C    0.003888   0.000084  -0.000011  -0.000002  -0.023362  -0.020017
     3  O   -0.000169  -0.000044   0.000011   0.000001   0.005110   0.002136
     4  N   -0.002529   0.002761   0.000336  -0.000095   0.004612   0.001685
     5  C   -0.090920  -0.112543  -0.000542   0.005363  -0.000134  -0.000178
     6  C    0.582206   0.273582  -0.027383  -0.026182   0.000001   0.000002
     7  O    8.087862  -0.090998   0.002689  -0.012453   0.000000   0.000001
     8  N   -0.090998   7.015602   0.301325   0.291557   0.000000   0.000000
     9  C    0.002689   0.301325   4.803255  -0.051898   0.000000   0.000000
    10  C   -0.012453   0.291557  -0.051898   4.819556   0.000000   0.000000
    11  H    0.000000   0.000000   0.000000   0.000000   0.548689  -0.023699
    12  H    0.000001   0.000000   0.000000   0.000000  -0.023699   0.590881
    13  H    0.000065   0.000000   0.000000   0.000000  -0.021158  -0.029000
    14  H    0.000868   0.001177  -0.001787  -0.000196  -0.000031  -0.000066
    15  H    0.001050   0.002872  -0.001968  -0.000256   0.000004   0.000001
    16  H    0.000082  -0.028063   0.384596   0.004288   0.000000   0.000000
    17  H   -0.000036  -0.045500   0.382833  -0.002661   0.000000   0.000000
    18  H   -0.000021  -0.045406   0.384319  -0.001917   0.000000   0.000000
    19  H    0.000653  -0.044888  -0.002052   0.384616   0.000000   0.000000
    20  H    0.024047  -0.036110   0.004318   0.383600   0.000000   0.000000
    21  H    0.000642  -0.045084  -0.001583   0.387773   0.000000   0.000000
    22  C    0.000061   0.000198  -0.000007  -0.000005   0.000310  -0.000669
    23  H    0.000013  -0.000003   0.000000   0.000000  -0.000004  -0.002226
    24  H    0.009493  -0.000348  -0.000008   0.000024  -0.000010   0.000197
    25  C    0.000394   0.000017  -0.000002   0.000000   0.000017  -0.000169
    26  H   -0.000004   0.000000   0.000000   0.000000  -0.000040   0.003916
    27  H    0.000014  -0.000005   0.000001   0.000000   0.000001  -0.000105
    28  O    0.000000   0.000000   0.000000   0.000000   0.000000  -0.000069
    29  C    0.000000   0.000000   0.000000   0.000000   0.000000  -0.000004
    30  H    0.000000   0.000000   0.000000   0.000000   0.000000   0.000000
    31  H    0.000000   0.000000   0.000000   0.000000   0.000000   0.000000
    32  H    0.000000   0.000000   0.000000   0.000000   0.000000   0.000006
             13         14         15         16         17         18
     1  C    0.366872   0.001385  -0.000115  -0.000001   0.000000   0.000000
     2  C   -0.021666  -0.003958   0.004257  -0.000044   0.000000   0.000004
     3  O    0.000754   0.031120   0.000836  -0.000055   0.000000   0.000000
     4  N    0.001850  -0.038918  -0.043464   0.000161  -0.000006  -0.000007
     5  C   -0.000254   0.359412   0.362413   0.009123  -0.000353  -0.000302
     6  C    0.000042  -0.023626  -0.038340  -0.010036   0.001578   0.000200
     7  O    0.000065   0.000868   0.001050   0.000082  -0.000036  -0.000021
     8  N    0.000000   0.001177   0.002872  -0.028063  -0.045500  -0.045406
     9  C    0.000000  -0.001787  -0.001968   0.384596   0.382833   0.384319
    10  C    0.000000  -0.000196  -0.000256   0.004288  -0.002661  -0.001917
    11  H   -0.021158  -0.000031   0.000004   0.000000   0.000000   0.000000
    12  H   -0.029000  -0.000066   0.000001   0.000000   0.000000   0.000000
    13  H    0.559441  -0.000028  -0.000008   0.000000   0.000000   0.000000
    14  H   -0.000028   0.526654  -0.025286   0.000311   0.000015   0.000378
    15  H   -0.000008  -0.025286   0.616783   0.000608   0.000246   0.000044
    16  H    0.000000   0.000311   0.000608   0.566520  -0.027535  -0.028688
    17  H    0.000000   0.000015   0.000246  -0.027535   0.615821  -0.047448
    18  H    0.000000   0.000378   0.000044  -0.028688  -0.047448   0.609225
    19  H    0.000000  -0.000007   0.000028   0.000019   0.006901  -0.001907
    20  H    0.000000  -0.000024  -0.000039  -0.000242  -0.000025  -0.000088
    21  H    0.000000   0.000022  -0.000008  -0.000019  -0.001980   0.007011
    22  C   -0.002687   0.004560   0.000155   0.000009   0.000000   0.000000
    23  H    0.001774  -0.000224  -0.000045   0.000000   0.000000   0.000000
    24  H    0.000146   0.000110  -0.002593   0.000000   0.000003  -0.000001
    25  C    0.000094   0.000063   0.002104   0.000000   0.000000   0.000000
    26  H    0.000054  -0.000007  -0.000225   0.000000   0.000000   0.000000
    27  H   -0.000007  -0.000114   0.003099  -0.000005   0.000000   0.000000
    28  O   -0.000003   0.000000  -0.000122   0.000000   0.000000   0.000000
    29  C    0.000000   0.000000   0.000004   0.000000   0.000000   0.000000
    30  H    0.000000   0.000000   0.000000   0.000000   0.000000   0.000000
    31  H    0.000000   0.000000   0.000004   0.000000   0.000000   0.000000
    32  H    0.000000   0.000000   0.000000   0.000000   0.000000   0.000000
             19         20         21         22         23         24
     1  C    0.000000   0.000000   0.000000   0.000290   0.007807  -0.000313
     2  C    0.000000  -0.000003   0.000000  -0.024017  -0.009009   0.002768
     3  O    0.000000   0.000000   0.000000   0.002493   0.000101  -0.000070
     4  N    0.000001  -0.000011   0.000002   0.248803  -0.028499  -0.032499
     5  C   -0.000117   0.001211  -0.000111  -0.043845   0.004280  -0.004434
     6  C    0.001895  -0.002540   0.000096  -0.004313   0.000148   0.004247
     7  O    0.000653   0.024047   0.000642   0.000061   0.000013   0.009493
     8  N   -0.044888  -0.036110  -0.045084   0.000198  -0.000003  -0.000348
     9  C   -0.002052   0.004318  -0.001583  -0.000007   0.000000  -0.000008
    10  C    0.384616   0.383600   0.387773  -0.000005   0.000000   0.000024
    11  H    0.000000   0.000000   0.000000   0.000310  -0.000004  -0.000010
    12  H    0.000000   0.000000   0.000000  -0.000669  -0.002226   0.000197
    13  H    0.000000   0.000000   0.000000  -0.002687   0.001774   0.000146
    14  H   -0.000007  -0.000024   0.000022   0.004560  -0.000224   0.000110
    15  H    0.000028  -0.000039  -0.000008   0.000155  -0.000045  -0.002593
    16  H    0.000019  -0.000242  -0.000019   0.000009   0.000000   0.000000
    17  H    0.006901  -0.000025  -0.001980   0.000000   0.000000   0.000003
    18  H   -0.001907  -0.000088   0.007011   0.000000   0.000000  -0.000001
    19  H    0.614538  -0.023914  -0.044894   0.000000   0.000000   0.000001
    20  H   -0.023914   0.512931  -0.025026  -0.000005   0.000000   0.000006
    21  H   -0.044894  -0.025026   0.608683   0.000000   0.000000  -0.000001
    22  C    0.000000  -0.000005   0.000000   4.905342   0.379046   0.377344
    23  H    0.000000   0.000000   0.000000   0.379046   0.589089  -0.027807
    24  H    0.000001   0.000006  -0.000001   0.377344  -0.027807   0.574410
    25  C    0.000000   0.000000   0.000000   0.350899  -0.044157  -0.045506
    26  H    0.000000   0.000000   0.000000  -0.037607  -0.008634   0.006178
    27  H    0.000000   0.000000   0.000000  -0.041427   0.006498  -0.007073
    28  O    0.000000   0.000000   0.000000  -0.039816   0.005311   0.005583
    29  C    0.000000   0.000000   0.000000   0.004326  -0.000096  -0.000092
    30  H    0.000000   0.000000   0.000000  -0.000248   0.000009   0.000008
    31  H    0.000000   0.000000   0.000000   0.000025   0.000046  -0.000055
    32  H    0.000000   0.000000   0.000000   0.000025  -0.000066   0.000045
             25         26         27         28         29         30
     1  C   -0.001800  -0.000808   0.000117   0.000007   0.000000   0.000000
     2  C   -0.000190   0.001782  -0.000145   0.000014  -0.000002   0.000000
     3  O   -0.000034  -0.000048  -0.000002   0.000000   0.000000   0.000000
     4  N   -0.054709   0.003144   0.001894   0.002152  -0.000129   0.000001
     5  C   -0.004006   0.000104   0.000607   0.000014  -0.000001   0.000000
     6  C    0.000107  -0.000009   0.000160   0.000001   0.000000   0.000000
     7  O    0.000394  -0.000004   0.000014   0.000000   0.000000   0.000000
     8  N    0.000017   0.000000  -0.000005   0.000000   0.000000   0.000000
     9  C   -0.000002   0.000000   0.000001   0.000000   0.000000   0.000000
    10  C    0.000000   0.000000   0.000000   0.000000   0.000000   0.000000
    11  H    0.000017  -0.000040   0.000001   0.000000   0.000000   0.000000
    12  H   -0.000169   0.003916  -0.000105  -0.000069  -0.000004   0.000000
    13  H    0.000094   0.000054  -0.000007  -0.000003   0.000000   0.000000
    14  H    0.000063  -0.000007  -0.000114   0.000000   0.000000   0.000000
    15  H    0.002104  -0.000225   0.003099  -0.000122   0.000004   0.000000
    16  H    0.000000   0.000000  -0.000005   0.000000   0.000000   0.000000
    17  H    0.000000   0.000000   0.000000   0.000000   0.000000   0.000000
    18  H    0.000000   0.000000   0.000000   0.000000   0.000000   0.000000
    19  H    0.000000   0.000000   0.000000   0.000000   0.000000   0.000000
    20  H    0.000000   0.000000   0.000000   0.000000   0.000000   0.000000
    21  H    0.000000   0.000000   0.000000   0.000000   0.000000   0.000000
    22  C    0.350899  -0.037607  -0.041427  -0.039816   0.004326  -0.000248
    23  H   -0.044157  -0.008634   0.006498   0.005311  -0.000096   0.000009
    24  H   -0.045506   0.006178  -0.007073   0.005583  -0.000092   0.000008
    25  C    4.801106   0.357298   0.361806   0.231508  -0.033881   0.005326
    26  H    0.357298   0.690818  -0.062283  -0.038961  -0.006495  -0.000111
    27  H    0.361806  -0.062283   0.694298  -0.039189  -0.006352  -0.000106
    28  O    0.231508  -0.038961  -0.039189   8.204610   0.258937  -0.032852
    29  C   -0.033881  -0.006495  -0.006352   0.258937   4.708003   0.394786
    30  H    0.005326  -0.000111  -0.000106  -0.032852   0.394786   0.584974
    31  H   -0.009298  -0.002736   0.013598  -0.037653   0.369642  -0.034866
    32  H   -0.009060   0.013427  -0.002767  -0.037656   0.370358  -0.035002
             31         32
     1  C    0.000000  -0.000002
     2  C    0.000000   0.000000
     3  O    0.000000   0.000000
     4  N    0.000012   0.000008
     5  C   -0.000003   0.000000
     6  C    0.000000   0.000000
     7  O    0.000000   0.000000
     8  N    0.000000   0.000000
     9  C    0.000000   0.000000
    10  C    0.000000   0.000000
    11  H    0.000000   0.000000
    12  H    0.000000   0.000006
    13  H    0.000000   0.000000
    14  H    0.000000   0.000000
    15  H    0.000004   0.000000
    16  H    0.000000   0.000000
    17  H    0.000000   0.000000
    18  H    0.000000   0.000000
    19  H    0.000000   0.000000
    20  H    0.000000   0.000000
    21  H    0.000000   0.000000
    22  C    0.000025   0.000025
    23  H    0.000046  -0.000066
    24  H   -0.000055   0.000045
    25  C   -0.009298  -0.009060
    26  H   -0.002736   0.013427
    27  H    0.013598  -0.002767
    28  O   -0.037653  -0.037656
    29  C    0.369642   0.370358
    30  H   -0.034866  -0.035002
    31  H    0.663075  -0.052805
    32  H   -0.052805   0.661020
 Mulliken atomic charges:
              1
     1  C   -0.407039
     2  C    0.571693
     3  O   -0.516859
     4  N   -0.430550
     5  C   -0.152684
     6  C    0.600527
     7  O   -0.516825
     8  N   -0.440181
     9  C   -0.176440
    10  C   -0.181110
    11  H    0.141754
    12  H    0.121399
    13  H    0.143717
    14  H    0.168197
    15  H    0.117961
    16  H    0.128972
    17  H    0.118147
    18  H    0.124605
    19  H    0.109126
    20  H    0.161913
    21  H    0.114479
    22  C   -0.079242
    23  H    0.126646
    24  H    0.140245
    25  C    0.092071
    26  H    0.081247
    27  H    0.077488
    28  O   -0.481818
    29  C   -0.059005
    30  H    0.118082
    31  H    0.091015
    32  H    0.092469
 Sum of Mulliken atomic charges =   0.00000
 Mulliken charges with hydrogens summed into heavy atoms:
              1
     1  C   -0.000169
     2  C    0.571693
     3  O   -0.516859
     4  N   -0.430550
     5  C    0.133474
     6  C    0.600527
     7  O   -0.516825
     8  N   -0.440181
     9  C    0.195283
    10  C    0.204407
    22  C    0.187649
    25  C    0.250805
    28  O   -0.481818
    29  C    0.242561
 Sum of Mulliken charges with hydrogens summed into heavy atoms =   0.00000
 Electronic spatial extent (au):  <R**2>=           3977.5059
 Charge=              0.0000 electrons
 Dipole moment (field-independent basis, Debye):
    X=             -0.3609    Y=             -3.2243    Z=              2.4701  Tot=              4.0777
 Quadrupole moment (field-independent basis, Debye-Ang):
   XX=            -67.7093   YY=            -90.3474   ZZ=            -87.2964
   XY=             -6.6548   XZ=              1.6292   YZ=             -6.9275
 Traceless Quadrupole moment (field-independent basis, Debye-Ang):
   XX=             14.0750   YY=             -8.5630   ZZ=             -5.5120
   XY=             -6.6548   XZ=              1.6292   YZ=             -6.9275
 Octapole moment (field-independent basis, Debye-Ang**2):
  XXX=             15.7899  YYY=            -28.2244  ZZZ=              3.2612  XYY=            -17.8790
  XXY=            -22.4929  XXZ=             15.8751  XZZ=              1.4426  YZZ=             -2.7490
  YYZ=            -12.8504  XYZ=              5.2815
 Hexadecapole moment (field-independent basis, Debye-Ang**3):
 XXXX=          -3042.7182 YYYY=          -1373.2163 ZZZZ=           -448.2427 XXXY=             49.3928
 XXXZ=            -31.9878 YYYX=            -10.1290 YYYZ=            -36.3217 ZZZX=             17.7854
 ZZZY=              2.8535 XXYY=           -711.5700 XXZZ=           -627.2583 YYZZ=           -298.9434
 XXYZ=            -10.4907 YYXZ=             -9.4163 ZZXY=             -5.0741
 N-N= 9.573180458856D+02 E-N=-3.520530312932D+03  KE= 6.826201811281D+02
 Calling FoFJK, ICntrl=      2127 FMM=F ISym2X=0 I1Cent= 0 IOpClX= 0 NMat=1 NMatS=1 NMatT=0.
 ***** Axes restored to original set *****
 -------------------------------------------------------------------
 Center     Atomic                   Forces (Hartrees/Bohr)
 Number     Number              X              Y              Z
 -------------------------------------------------------------------
      1        6          -0.000002355   -0.000005151    0.000007794
      2        6          -0.000286084    0.000058016    0.000522447
      3        8           0.000010661   -0.000005775    0.000007745
      4        7           0.000316793    0.000119771   -0.000769252
      5        6           0.000178266   -0.000635137    0.000285421
      6        6          -0.000216156    0.000460170   -0.000055243
      7        8           0.000002051   -0.000000389    0.000015803
      8        7          -0.000003850   -0.000000120    0.000003411
      9        6           0.000003313    0.000006796    0.000000627
     10        6           0.000002426   -0.000002044   -0.000001429
     11        1           0.000003404    0.000001693    0.000003080
     12        1           0.000000551   -0.000001277    0.000002223
     13        1           0.000000827   -0.000003516    0.000000301
     14        1           0.000000942    0.000006064   -0.000002416
     15        1          -0.000000357   -0.000001422   -0.000001372
     16        1           0.000001080    0.000002317   -0.000003230
     17        1           0.000000421    0.000003097   -0.000002365
     18        1          -0.000000082    0.000002012   -0.000003062
     19        1          -0.000002749    0.000003053   -0.000002936
     20        1           0.000000037    0.000000701   -0.000000653
     21        1          -0.000000874    0.000002095   -0.000003239
     22        6          -0.000005456    0.000001713   -0.000010331
     23        1           0.000001027   -0.000001189    0.000008142
     24        1           0.000000294   -0.000001599    0.000001163
     25        6           0.000002489    0.000006455    0.000008037
     26        1          -0.000000556   -0.000003209    0.000000135
     27        1          -0.000001271   -0.000002269   -0.000003849
     28        8          -0.000001393   -0.000005721   -0.000007627
     29        6          -0.000002502    0.000002476    0.000006898
     30        1           0.000000942   -0.000003259   -0.000001031
     31        1          -0.000001364   -0.000002614   -0.000002842
     32        1          -0.000000479   -0.000001739   -0.000002353
 -------------------------------------------------------------------
 Cartesian Forces:  Max     0.000769252 RMS     0.000138600

 GradGradGradGradGradGradGradGradGradGradGradGradGradGradGradGradGradGrad
 Berny optimization.
 Internal  Forces:  Max     0.000516765 RMS     0.000070391
 Search for a local minimum.
 Step number   1 out of a maximum of  155 on scan point     1 out of    37
 All quantities printed in internal units (Hartrees-Bohrs-Radians)
 Mixed Optimization -- En-DIIS/RFO-DIIS
 Second derivative matrix not updated -- first step.
 ITU=  0
     Eigenvalues ---    0.00361   0.00486   0.00687   0.00898   0.00946
     Eigenvalues ---    0.00986   0.01082   0.01186   0.01278   0.01529
     Eigenvalues ---    0.01531   0.01963   0.02061   0.02974   0.04156
     Eigenvalues ---    0.05319   0.05455   0.05861   0.06466   0.06925
     Eigenvalues ---    0.07301   0.07457   0.07480   0.07483   0.07660
     Eigenvalues ---    0.09454   0.09815   0.10038   0.10506   0.10673
     Eigenvalues ---    0.11132   0.12878   0.13630   0.16000   0.16000
     Eigenvalues ---    0.16000   0.16000   0.16000   0.16000   0.16000
     Eigenvalues ---    0.16000   0.16000   0.16000   0.16000   0.16000
     Eigenvalues ---    0.21914   0.21917   0.22024   0.24840   0.24910
     Eigenvalues ---    0.24923   0.24952   0.24994   0.25000   0.25000
     Eigenvalues ---    0.25000   0.25000   0.28165   0.29368   0.30254
     Eigenvalues ---    0.33232   0.33302   0.33522   0.33533   0.33888
     Eigenvalues ---    0.33953   0.33961   0.34000   0.34024   0.34216
     Eigenvalues ---    0.34385   0.34540   0.34602   0.34611   0.34747
     Eigenvalues ---    0.34882   0.35006   0.35069   0.36968   0.37418
     Eigenvalues ---    0.37809   0.38293   0.43635   0.43662   0.49192
     Eigenvalues ---    0.50572   0.92169   0.925721000.000001000.00000
     Eigenvalues --- 1000.000001000.000001000.000001000.000001000.00000
     Eigenvalues --- 1000.000001000.000001000.000001000.000001000.00000
     Eigenvalues --- 1000.000001000.000001000.000001000.000001000.00000
     Eigenvalues --- 1000.000001000.000001000.000001000.000001000.00000
     Eigenvalues --- 1000.000001000.000001000.000001000.000001000.00000
     Eigenvalues --- 1000.000001000.000001000.000001000.000001000.00000
     Eigenvalues --- 1000.000001000.000001000.000001000.000001000.00000
     Eigenvalues --- 1000.000001000.000001000.000001000.000001000.00000
     Eigenvalues --- 1000.000001000.000001000.000001000.000001000.00000
     Eigenvalues --- 1000.000001000.000001000.000001000.000001000.00000
     Eigenvalues --- 1000.000001000.000001000.000001000.000001000.00000
 RFO step:  Lambda= 0.00000000D+00 EMin= 3.61198848D-03
 Linear search not attempted -- first point.
 Iteration  1 RMS(Cart)=  0.00012026 RMS(Int)=  0.00000000
 Iteration  2 RMS(Cart)=  0.00000001 RMS(Int)=  0.00000000
 Iteration  1 RMS(Cart)=  0.00000000 RMS(Int)=  0.00000000
 Variable       Old X    -DE/DX   Delta X   Delta X   Delta X     New X
                                 (Linear)    (Quad)   (Total)
    R1        2.87460   0.00000   0.00000  -0.00001  -0.00001   2.87459
    R2        2.05867   0.00000   0.00000   0.00001   0.00001   2.05868
    R3        2.06686   0.00000   0.00000   0.00000   0.00000   2.06686
    R4        2.06968   0.00000   0.00000  -0.00001  -0.00001   2.06967
    R5        2.31949  -0.00001   0.00000  -0.00001  -0.00001   2.31948
    R6        2.60689   0.00001   0.00000   0.00002   0.00002   2.60692
    R7        2.73940   0.00000   0.00000   0.00000   0.00000   2.73940
    R8        2.75895   0.00000   0.00000  -0.00001  -0.00001   2.75893
    R9        2.91779  -0.00001   0.00000  -0.00002  -0.00002   2.91777
   R10        2.06311   0.00000   0.00000   0.00001   0.00001   2.06312
   R11        2.07330   0.00000   0.00000   0.00001   0.00001   2.07331
   R12        2.31770   0.00002   0.00000   0.00002   0.00002   2.31772
   R13        2.59292   0.00000   0.00000  -0.00001  -0.00001   2.59292
   R14        2.74644   0.00000   0.00000   0.00000   0.00000   2.74644
   R15        2.75221   0.00000   0.00000   0.00000   0.00000   2.75221
   R16        2.05562   0.00000   0.00000   0.00001   0.00001   2.05563
   R17        2.07410   0.00000   0.00000   0.00000   0.00000   2.07410
   R18        2.07519   0.00000   0.00000   0.00000   0.00000   2.07519
   R19        2.07290   0.00000   0.00000   0.00000   0.00000   2.07290
   R20        2.05665   0.00000   0.00000   0.00000   0.00000   2.05665
   R21        2.07396   0.00000   0.00000   0.00000   0.00000   2.07396
   R22        2.06087   0.00001   0.00000   0.00002   0.00002   2.06089
   R23        2.06326   0.00000   0.00000   0.00000   0.00000   2.06326
   R24        2.89241   0.00000   0.00000   0.00000   0.00000   2.89241
   R25        2.08524   0.00000   0.00000  -0.00001  -0.00001   2.08523
   R26        2.08646   0.00000   0.00000   0.00001   0.00001   2.08647
   R27        2.66894   0.00000   0.00000   0.00000   0.00000   2.66894
   R28        2.66861   0.00000   0.00000  -0.00001  -0.00001   2.66861
   R29        2.06428   0.00000   0.00000   0.00000   0.00000   2.06429
   R30        2.08145   0.00000   0.00000   0.00001   0.00001   2.08145
   R31        2.08126   0.00000   0.00000   0.00000   0.00000   2.08126
    A1        1.87193   0.00000   0.00000   0.00002   0.00002   1.87195
    A2        1.97080   0.00000   0.00000  -0.00001  -0.00001   1.97079
    A3        1.93191   0.00000   0.00000  -0.00001  -0.00001   1.93191
    A4        1.90839   0.00000   0.00000  -0.00001  -0.00001   1.90838
    A5        1.89761   0.00000   0.00000   0.00001   0.00001   1.89762
    A6        1.88216   0.00000   0.00000   0.00000   0.00000   1.88216
    A7        2.10964   0.00000   0.00000   0.00001   0.00001   2.10965
    A8        2.05112  -0.00001   0.00000  -0.00003  -0.00003   2.05109
    A9        2.12242   0.00000   0.00000   0.00002   0.00002   2.12244
   A10        2.04751   0.00002   0.00000   0.00004   0.00004   2.04755
   A11        2.17483  -0.00003   0.00000  -0.00001  -0.00001   2.17482
   A12        2.05667   0.00000   0.00000  -0.00003  -0.00003   2.05665
   A13        1.94980   0.00000   0.00000  -0.00003  -0.00003   1.94978
   A14        1.86493  -0.00002   0.00000  -0.00001  -0.00001   1.86492
   A15        1.91730   0.00002   0.00000   0.00001   0.00001   1.91731
   A16        1.92661  -0.00024   0.00000   0.00002   0.00002   1.92663
   A17        1.91158   0.00023   0.00000   0.00000   0.00000   1.91157
   A18        1.89239   0.00000   0.00000   0.00001   0.00001   1.89240
   A19        2.10494   0.00000   0.00000   0.00002   0.00002   2.10496
   A20        2.04100  -0.00001   0.00000  -0.00002  -0.00002   2.04098
   A21        2.13701   0.00000   0.00000   0.00001   0.00001   2.13702
   A22        2.18961  -0.00001   0.00000  -0.00003  -0.00003   2.18957
   A23        2.07649   0.00000   0.00000   0.00001   0.00001   2.07650
   A24        2.01433   0.00001   0.00000   0.00002   0.00002   2.01435
   A25        1.94911   0.00000   0.00000   0.00001   0.00001   1.94912
   A26        1.92526   0.00000   0.00000  -0.00001  -0.00001   1.92525
   A27        1.93311   0.00000   0.00000   0.00002   0.00002   1.93313
   A28        1.88659   0.00000   0.00000  -0.00001  -0.00001   1.88658
   A29        1.88545   0.00000   0.00000   0.00000   0.00000   1.88544
   A30        1.88221   0.00000   0.00000  -0.00001  -0.00001   1.88220
   A31        1.92540   0.00000   0.00000   0.00002   0.00002   1.92541
   A32        1.89262   0.00000   0.00000   0.00000   0.00000   1.89262
   A33        1.93153   0.00000   0.00000  -0.00002  -0.00002   1.93151
   A34        1.91506   0.00000   0.00000   0.00001   0.00001   1.91507
   A35        1.89054   0.00000   0.00000  -0.00001  -0.00001   1.89053
   A36        1.90871   0.00000   0.00000   0.00000   0.00000   1.90871
   A37        1.92663   0.00000   0.00000   0.00002   0.00002   1.92665
   A38        1.89602   0.00000   0.00000   0.00000   0.00000   1.89602
   A39        1.96254   0.00000   0.00000  -0.00001  -0.00001   1.96253
   A40        1.85144   0.00000   0.00000  -0.00003  -0.00003   1.85142
   A41        1.90747   0.00000   0.00000   0.00002   0.00002   1.90749
   A42        1.91643   0.00000   0.00000  -0.00001  -0.00001   1.91642
   A43        1.92700   0.00000   0.00000   0.00002   0.00002   1.92701
   A44        1.92755   0.00000   0.00000   0.00000   0.00000   1.92754
   A45        1.87520   0.00000   0.00000   0.00002   0.00002   1.87521
   A46        1.86383   0.00000   0.00000  -0.00001  -0.00001   1.86382
   A47        1.93734   0.00000   0.00000   0.00000   0.00000   1.93734
   A48        1.93370   0.00000   0.00000  -0.00002  -0.00002   1.93369
   A49        1.97289   0.00000   0.00000   0.00001   0.00001   1.97291
   A50        1.87274   0.00000   0.00000   0.00002   0.00002   1.87275
   A51        1.95094   0.00000   0.00000   0.00000   0.00000   1.95093
   A52        1.95176   0.00000   0.00000   0.00001   0.00001   1.95177
   A53        1.89986   0.00000   0.00000  -0.00001  -0.00001   1.89985
   A54        1.89984   0.00000   0.00000   0.00000   0.00000   1.89984
   A55        1.88765   0.00000   0.00000  -0.00001  -0.00001   1.88764
    D1       -0.14839   0.00000   0.00000   0.00000   0.00000  -0.14839
    D2        2.99502   0.00000   0.00000   0.00007   0.00007   2.99509
    D3       -2.25190   0.00000   0.00000   0.00000   0.00000  -2.25189
    D4        0.89152   0.00000   0.00000   0.00007   0.00007   0.89159
    D5        1.91921   0.00000   0.00000   0.00002   0.00002   1.91924
    D6       -1.22056   0.00000   0.00000   0.00009   0.00009  -1.22047
    D7        3.07180  -0.00009   0.00000  -0.00012  -0.00012   3.07169
    D8        0.03066   0.00008   0.00000  -0.00010  -0.00010   0.03056
    D9       -0.06795  -0.00009   0.00000  -0.00004  -0.00004  -0.06800
   D10       -3.10909   0.00008   0.00000  -0.00003  -0.00003  -3.10912
   D11       -1.76854   0.00052   0.00000   0.00000   0.00000  -1.76854
   D12        0.34027   0.00021   0.00000   0.00000   0.00000   0.34027
   D13        2.38962   0.00021   0.00000   0.00001   0.00001   2.38964
   D14        1.27957   0.00036   0.00000  -0.00001  -0.00001   1.27956
   D15       -2.89481   0.00005   0.00000  -0.00001  -0.00001  -2.89481
   D16       -0.84545   0.00005   0.00000   0.00000   0.00000  -0.84545
   D17        0.43617  -0.00008   0.00000   0.00002   0.00002   0.43618
   D18        2.45940  -0.00008   0.00000   0.00000   0.00000   2.45939
   D19       -1.69895  -0.00009   0.00000  -0.00002  -0.00002  -1.69897
   D20       -2.60449   0.00009   0.00000   0.00003   0.00003  -2.60446
   D21       -0.58126   0.00008   0.00000   0.00001   0.00001  -0.58125
   D22        1.54358   0.00008   0.00000  -0.00001  -0.00001   1.54357
   D23       -0.05962  -0.00012   0.00000   0.00004   0.00004  -0.05958
   D24        3.10442  -0.00012   0.00000   0.00000   0.00000   3.10442
   D25       -2.13211   0.00006   0.00000   0.00006   0.00006  -2.13206
   D26        1.03193   0.00006   0.00000   0.00002   0.00002   1.03195
   D27        2.06869   0.00006   0.00000   0.00003   0.00003   2.06873
   D28       -1.05045   0.00006   0.00000   0.00000   0.00000  -1.05045
   D29       -0.08375   0.00000   0.00000   0.00009   0.00009  -0.08366
   D30        3.14144   0.00000   0.00000   0.00011   0.00011   3.14155
   D31        3.08074   0.00000   0.00000   0.00005   0.00005   3.08079
   D32        0.02274   0.00000   0.00000   0.00007   0.00007   0.02281
   D33        0.09888   0.00000   0.00000   0.00000   0.00000   0.09888
   D34        2.19727   0.00000   0.00000  -0.00002  -0.00002   2.19725
   D35       -2.00340   0.00000   0.00000  -0.00002  -0.00002  -2.00342
   D36       -3.12368   0.00000   0.00000  -0.00002  -0.00002  -3.12369
   D37       -1.02528   0.00000   0.00000  -0.00004  -0.00004  -1.02532
   D38        1.05723   0.00000   0.00000  -0.00004  -0.00004   1.05719
   D39       -2.18173   0.00000   0.00000  -0.00004  -0.00004  -2.18177
   D40       -0.08407   0.00000   0.00000  -0.00002  -0.00002  -0.08409
   D41        2.00948   0.00000   0.00000  -0.00003  -0.00003   2.00946
   D42        1.03524   0.00000   0.00000  -0.00002  -0.00002   1.03522
   D43        3.13289   0.00000   0.00000   0.00000   0.00000   3.13290
   D44       -1.05674   0.00000   0.00000  -0.00001  -0.00001  -1.05674
   D45        1.07611   0.00000   0.00000   0.00000   0.00000   1.07611
   D46       -0.98124   0.00000   0.00000   0.00001   0.00001  -0.98123
   D47       -3.09210   0.00000   0.00000   0.00002   0.00002  -3.09208
   D48       -1.06979   0.00000   0.00000  -0.00004  -0.00004  -1.06983
   D49       -3.12715   0.00000   0.00000  -0.00003  -0.00003  -3.12718
   D50        1.04518   0.00000   0.00000  -0.00002  -0.00002   1.04516
   D51       -3.09388   0.00000   0.00000  -0.00001  -0.00001  -3.09389
   D52        1.13195   0.00000   0.00000   0.00000   0.00000   1.13195
   D53       -0.97891   0.00000   0.00000   0.00001   0.00001  -0.97890
   D54       -3.13941   0.00000   0.00000  -0.00003  -0.00003  -3.13944
   D55       -1.03095   0.00000   0.00000   0.00000   0.00000  -1.03095
   D56        1.03679   0.00000   0.00000  -0.00002  -0.00002   1.03677
   D57       -3.13708   0.00000   0.00000  -0.00014  -0.00014  -3.13722
   D58       -1.05542   0.00000   0.00000  -0.00014  -0.00014  -1.05555
   D59        1.06397   0.00000   0.00000  -0.00015  -0.00015   1.06382
         Item               Value     Threshold  Converged?
 Maximum Force            0.000016     0.000450     YES
 RMS     Force            0.000003     0.000300     YES
 Maximum Displacement     0.000414     0.001800     YES
 RMS     Displacement     0.000120     0.001200     YES
 Predicted change in Energy=-3.243547D-09
 Optimization completed.
    -- Stationary point found.
                           ----------------------------
                           !   Optimized Parameters   !
                           ! (Angstroms and Degrees)  !
 --------------------------                            --------------------------
 ! Name  Definition              Value          Derivative Info.                !
 --------------------------------------------------------------------------------
 ! R1    R(1,2)                  1.5212         -DE/DX =    0.0                 !
 ! R2    R(1,11)                 1.0894         -DE/DX =    0.0                 !
 ! R3    R(1,12)                 1.0937         -DE/DX =    0.0                 !
 ! R4    R(1,13)                 1.0952         -DE/DX =    0.0                 !
 ! R5    R(2,3)                  1.2274         -DE/DX =    0.0                 !
 ! R6    R(2,4)                  1.3795         -DE/DX =    0.0                 !
 ! R7    R(4,5)                  1.4496         -DE/DX =    0.0                 !
 ! R8    R(4,22)                 1.46           -DE/DX =    0.0                 !
 ! R9    R(5,6)                  1.544          -DE/DX =    0.0                 !
 ! R10   R(5,14)                 1.0918         -DE/DX =    0.0                 !
 ! R11   R(5,15)                 1.0971         -DE/DX =    0.0                 !
 ! R12   R(6,7)                  1.2265         -DE/DX =    0.0                 !
 ! R13   R(6,8)                  1.3721         -DE/DX =    0.0                 !
 ! R14   R(8,9)                  1.4534         -DE/DX =    0.0                 !
 ! R15   R(8,10)                 1.4564         -DE/DX =    0.0                 !
 ! R16   R(9,16)                 1.0878         -DE/DX =    0.0                 !
 ! R17   R(9,17)                 1.0976         -DE/DX =    0.0                 !
 ! R18   R(9,18)                 1.0981         -DE/DX =    0.0                 !
 ! R19   R(10,19)                1.0969         -DE/DX =    0.0                 !
 ! R20   R(10,20)                1.0883         -DE/DX =    0.0                 !
 ! R21   R(10,21)                1.0975         -DE/DX =    0.0                 !
 ! R22   R(22,23)                1.0906         -DE/DX =    0.0                 !
 ! R23   R(22,24)                1.0918         -DE/DX =    0.0                 !
 ! R24   R(22,25)                1.5306         -DE/DX =    0.0                 !
 ! R25   R(25,26)                1.1035         -DE/DX =    0.0                 !
 ! R26   R(25,27)                1.1041         -DE/DX =    0.0                 !
 ! R27   R(25,28)                1.4123         -DE/DX =    0.0                 !
 ! R28   R(28,29)                1.4122         -DE/DX =    0.0                 !
 ! R29   R(29,30)                1.0924         -DE/DX =    0.0                 !
 ! R30   R(29,31)                1.1015         -DE/DX =    0.0                 !
 ! R31   R(29,32)                1.1014         -DE/DX =    0.0                 !
 ! A1    A(2,1,11)             107.2538         -DE/DX =    0.0                 !
 ! A2    A(2,1,12)             112.9186         -DE/DX =    0.0                 !
 ! A3    A(2,1,13)             110.6906         -DE/DX =    0.0                 !
 ! A4    A(11,1,12)            109.3428         -DE/DX =    0.0                 !
 ! A5    A(11,1,13)            108.7248         -DE/DX =    0.0                 !
 ! A6    A(12,1,13)            107.84           -DE/DX =    0.0                 !
 ! A7    A(1,2,3)              120.8735         -DE/DX =    0.0                 !
 ! A8    A(1,2,4)              117.5205         -DE/DX =    0.0                 !
 ! A9    A(3,2,4)              121.6059         -DE/DX =    0.0                 !
 ! A10   A(2,4,5)              117.3138         -DE/DX =    0.0                 !
 ! A11   A(2,4,22)             124.6084         -DE/DX =    0.0                 !
 ! A12   A(5,4,22)             117.8387         -DE/DX =    0.0                 !
 ! A13   A(4,5,6)              111.7154         -DE/DX =    0.0                 !
 ! A14   A(4,5,14)             106.8525         -DE/DX =    0.0                 !
 ! A15   A(4,5,15)             109.8529         -DE/DX =    0.0                 !
 ! A16   A(6,5,14)             110.3867         -DE/DX =   -0.0002              !
[...]
   D17        0.42998   0.00025  -0.00002   0.00359   0.00357   0.43356
   D18        2.46703   0.00024  -0.00002   0.00335   0.00334   2.47037
   D19       -1.70734   0.00030   0.00000   0.00401   0.00401  -1.70333
   D20       -2.55997  -0.00029  -0.00009  -0.00306  -0.00315  -2.56312
   D21       -0.52292  -0.00030  -0.00009  -0.00330  -0.00339  -0.52631
   D22        1.58589  -0.00024  -0.00007  -0.00265  -0.00272   1.58317
   D23        1.12127  -0.00079   0.00044  -0.00169  -0.00126   1.12001
   D24       -1.95703  -0.00183   0.00000   0.00000   0.00000  -1.95703
   D25       -0.89082  -0.00020   0.00059  -0.00085  -0.00026  -0.89107
   D26        2.31406  -0.00124   0.00016   0.00084   0.00100   2.31506
   D27       -2.98331  -0.00009   0.00065  -0.00290  -0.00225  -2.98556
   D28        0.22157  -0.00114   0.00022  -0.00121  -0.00099   0.22058
   D29       -0.18825   0.00048   0.00073  -0.02568  -0.02495  -0.21320
   D30       -3.07699   0.00042   0.00055  -0.01617  -0.01562  -3.09260
   D31        3.01873  -0.00059   0.00028  -0.02398  -0.02370   2.99503
   D32        0.12999  -0.00066   0.00010  -0.01446  -0.01436   0.11563
   D33        0.55825  -0.00017   0.00116  -0.03771  -0.03656   0.52169
   D34        2.62376  -0.00004   0.00106  -0.03196  -0.03090   2.59286
   D35       -1.58066   0.00002   0.00106  -0.03184  -0.03079  -1.61146
   D36       -2.82959  -0.00009   0.00134  -0.04667  -0.04533  -2.87492
   D37       -0.76408   0.00004   0.00123  -0.04092  -0.03968  -0.80376
   D38        1.31468   0.00010   0.00124  -0.04080  -0.03957   1.27511
   D39       -2.33285  -0.00005   0.00046  -0.00780  -0.00735  -2.34020
   D40       -0.23497  -0.00008   0.00048  -0.00698  -0.00650  -0.24147
   D41        1.85822  -0.00006   0.00043  -0.00754  -0.00710   1.85112
   D42        1.03264   0.00010   0.00032   0.00058   0.00090   1.03354
   D43        3.13053   0.00006   0.00034   0.00141   0.00175   3.13227
   D44       -1.05947   0.00009   0.00030   0.00085   0.00114  -1.05833
   D45        1.09599   0.00001  -0.00004  -0.00088  -0.00092   1.09508
   D46       -0.95760  -0.00001  -0.00002  -0.00114  -0.00115  -0.95875
   D47       -3.07175   0.00004  -0.00004  -0.00072  -0.00076  -3.07251
   D48       -1.05741   0.00000  -0.00002  -0.00063  -0.00066  -1.05807
   D49       -3.11100  -0.00001   0.00000  -0.00089  -0.00090  -3.11190
   D50        1.05803   0.00004  -0.00002  -0.00048  -0.00050   1.05753
   D51       -3.07364  -0.00002   0.00001  -0.00046  -0.00045  -3.07409
   D52        1.15595  -0.00004   0.00003  -0.00072  -0.00069   1.15527
   D53       -0.95820   0.00001   0.00001  -0.00030  -0.00029  -0.95849
   D54       -3.10943  -0.00004   0.00005  -0.00493  -0.00487  -3.11431
   D55       -1.00465  -0.00005   0.00005  -0.00504  -0.00499  -1.00964
   D56        1.06630  -0.00005   0.00004  -0.00481  -0.00476   1.06153
   D57       -3.14074  -0.00001  -0.00019  -0.00098  -0.00117   3.14127
   D58       -1.05902  -0.00002  -0.00018  -0.00104  -0.00122  -1.06024
   D59        1.06035   0.00001  -0.00019  -0.00081  -0.00100   1.05935
         Item               Value     Threshold  Converged?
 Maximum Force            0.001099     0.000450     NO 
 RMS     Force            0.000174     0.000300     YES
 Maximum Displacement     0.106101     0.001800     NO 
 RMS     Displacement     0.017707     0.001200     NO 
 Predicted change in Energy=-1.198904D-05
 GradGradGradGradGradGradGradGradGradGradGradGradGradGradGradGradGradGrad

                          Input orientation:                          
 ---------------------------------------------------------------------
 Center     Atomic      Atomic             Coordinates (Angstroms)
 Number     Number       Type             X           Y           Z
 ---------------------------------------------------------------------
      1          6           0        1.870064    2.687912    0.938356
      2          6           0        0.680820    2.425235    0.024955
      3          8           0        0.075323    3.350284   -0.499067
      4          7           0        0.331371    1.102881   -0.198175
      5          6           0       -0.908881    0.841782   -0.924168
      6          6           0       -2.036230    0.447751    0.049501
      7          8           0       -2.419234    1.272098    0.870834
      8          7           0       -2.531797   -0.840976    0.025436
      9          6           0       -2.277172   -1.840558   -1.002485
     10          6           0       -3.641809   -1.158689    0.919260
     11          1           0        2.081025    3.755480    0.891230
     12          1           0        2.764326    2.130370    0.644690
     13          1           0        1.632589    2.422053    1.974024
     14          1           0       -1.203061    1.789249   -1.377879
     15          1           0       -0.729517    0.115909   -1.719894
     16          1           0       -1.302208   -1.707032   -1.467133
     17          1           0       -2.287881   -2.834188   -0.542868
     18          1           0       -3.045289   -1.826413   -1.789122
     19          1           0       -3.448642   -2.108056    1.430497
     20          1           0       -3.737458   -0.356806    1.648187
     21          1           0       -4.582899   -1.251728    0.360744
     22          6           0        1.022519   -0.039428    0.388939
     23          1           0        1.522661    0.245233    1.315754
     24          1           0        0.288007   -0.804871    0.659751
     25          6           0        2.048331   -0.656845   -0.565507
     26          1           0        2.839066    0.075891   -0.798732
     27          1           0        1.569027   -0.924939   -1.523240
     28          8           0        2.584116   -1.799802    0.068118
     29          6           0        3.576966   -2.445187   -0.702761
     30          1           0        3.923358   -3.307748   -0.129055
     31          1           0        3.180677   -2.795770   -1.668642
     32          1           0        4.433501   -1.782952   -0.902601
 ---------------------------------------------------------------------
                    Distance matrix (angstroms):
                    1          2          3          4          5
     1  C    0.000000
     2  C    1.522367   0.000000
     3  O    2.392909   1.223495   0.000000
     4  N    2.484270   1.385829   2.281867   0.000000
     5  C    3.820958   2.436248   2.727994   1.460638   0.000000
     6  C    4.589936   3.360566   3.631016   2.469022   1.540846
     7  O    4.517429   3.414026   3.523961   2.955883   2.385031
     8  N    5.715142   4.581380   4.963752   3.467897   2.523347
     9  C    6.439989   5.291723   5.721232   4.014379   3.012192
    10  C    6.721417   5.685896   6.013282   4.706327   3.856035
    11  H    1.089233   2.116733   2.473853   3.359222   4.552454
    12  H    1.093982   2.193630   3.166560   2.772259   4.196930
    13  H    1.095301   2.169042   3.066409   2.855140   4.166034
    14  H    3.951788   2.433398   2.200774   2.053603   1.090912
    15  H    4.520986   3.219710   3.549559   2.101244   1.091899
    16  H    5.930027   4.820203   5.330215   3.489190   2.635521
    17  H    7.069378   6.066064   6.620751   4.741287   3.944589
    18  H    7.209643   5.937278   6.180668   4.744861   3.525855
    19  H    7.178589   6.291163   6.777538   5.220267   4.549328
    20  H    6.420161   5.467706   5.735025   4.700543   4.006803
    21  H    7.582554   6.429584   6.604303   5.477830   4.419524
    22  C    2.908363   2.514718   3.629860   1.458512   2.496214
    23  H    2.495956   2.669694   3.876816   2.108723   3.359392
    24  H    3.844484   3.315245   4.318959   2.092232   2.579303
    25  C    3.671618   3.423149   4.467019   2.485864   3.334610
    26  H    3.283153   3.294830   4.295314   2.775592   3.827457
    27  H    4.382096   3.795983   4.643017   2.720229   3.101648
    28  O    4.626744   4.634149   5.756659   3.683930   4.490392
    29  C    5.652918   5.712989   6.774251   4.835006   5.565609
    30  H    6.426766   6.588237   7.698939   5.688655   6.418826
    31  H    6.211675   6.031289   6.984633   5.047801   5.523631
    32  H    5.472564   5.714176   6.745863   5.064753   5.952372
                    6          7          8          9         10
     6  C    0.000000
     7  O    1.225083   0.000000
     8  N    1.380936   2.278695   0.000000
     9  C    2.530036   3.635675   1.456234   0.000000
    10  C    2.432080   2.721352   1.460133   2.453626   0.000000
    11  H    5.348024   5.140032   6.569257   7.341367   7.543253
    12  H    5.121600   5.258998   6.104202   6.625567   7.206376
    13  H    4.589323   4.353928   5.637948   6.505050   6.461695
    14  H    2.128661   2.608301   3.263880   3.803962   4.462586
    15  H    2.224494   3.302089   2.685148   2.595703   4.131728
    16  H    2.735335   3.948298   2.118893   1.088247   3.386634
    17  H    3.344451   4.344812   2.086949   1.094835   2.603504
    18  H    3.093632   4.131354   2.127764   1.099546   2.852547
    19  H    3.230203   3.577477   2.102450   2.713540   1.095434
    20  H    2.469268   2.235021   2.078788   3.370462   1.087888
    21  H    3.077438   3.363233   2.118529   2.742534   1.098292
    22  C    3.115847   3.714564   3.661663   4.008502   4.825965
    23  H    3.782871   4.097675   4.391287   4.915637   5.366559
    24  H    2.709898   3.418700   2.890494   3.227355   3.954236
    25  C    4.275746   5.073759   4.621763   4.505785   5.902039
    26  H    4.962488   5.645182   5.510541   5.467191   6.817435
    27  H    4.166014   5.144395   4.384314   3.987830   5.759623
    28  O    5.138039   5.925744   5.205165   4.977949   6.316456
    29  C    6.359478   7.228335   6.357732   5.892906   7.509776
    30  H    7.046442   7.886903   6.912153   6.431337   7.934051
    31  H    6.378758   7.372618   6.270843   5.580708   7.478207
    32  H    6.909410   7.709629   7.089707   6.711663   8.301777
                   11         12         13         14         15
    11  H    0.000000
    12  H    1.780075   0.000000
    13  H    1.775265   1.770038   0.000000
    14  H    4.449734   4.466240   4.435831   0.000000
    15  H    5.288061   4.675067   4.954076   1.772367   0.000000
    16  H    6.844500   5.976800   6.124045   3.498825   1.927428
    17  H    8.035403   7.182055   7.023738   4.821851   3.537932
    18  H    8.038713   7.438494   7.354813   4.078718   3.023277
    19  H    8.077690   7.561925   6.829071   5.302697   4.718541
    20  H    7.165097   7.033224   6.055214   4.492860   4.540389
    21  H    8.352330   8.093264   7.398082   4.867613   4.587814
    22  C    3.971657   2.794159   2.990580   3.379188   2.746076
    23  H    3.579641   2.354952   2.276828   4.131489   3.782088
    24  H    4.905639   3.840315   3.734735   3.620038   2.746981
    25  C    4.646694   3.121825   4.012689   4.149081   3.105833
    26  H    4.119463   2.511959   3.827301   4.428295   3.685773
    27  H    5.291326   3.932374   4.841203   3.882321   2.530878
    28  O    5.638419   3.976325   4.728841   5.414324   4.224583
    29  C    6.574719   4.838567   5.885219   6.421440   5.112687
    30  H    7.370506   5.613836   6.519293   7.336150   5.991781
    31  H    7.119063   5.458178   6.549142   6.350126   4.875461
    32  H    6.279029   4.527068   5.813961   6.690092   5.561510
                   16         17         18         19         20
    16  H    0.000000
    17  H    1.759630   0.000000
    18  H    1.776587   1.772689   0.000000
    19  H    3.628259   2.401833   3.256987   0.000000
    20  H    4.178370   3.611013   3.801834   1.788206   0.000000
    21  H    3.783038   2.930495   2.704891   1.778822   1.781338
    22  C    3.410317   4.431444   4.948164   5.035409   4.933945
    23  H    4.419919   5.239994   5.898995   5.501362   5.304886
    24  H    2.804695   3.492795   4.260445   4.031735   4.169189
    25  C    3.625180   4.852223   5.367503   6.025508   6.202081
    26  H    4.558039   5.900814   6.263007   7.019569   7.030313
    27  H    2.976375   4.413854   4.709062   5.941493   6.208020
    28  O    4.179607   5.017930   5.927921   6.192356   6.673916
    29  C    4.993543   5.879908   6.739237   7.350075   7.961726
    30  H    5.626657   6.242995   7.315204   7.630062   8.399687
    31  H    4.617597   5.583365   6.302128   7.350203   8.050496
    32  H    5.763923   6.812597   7.531275   8.226616   8.677844
                   21         22         23         24         25
    21  H    0.000000
    22  C    5.735083   0.000000
    23  H    6.358521   1.090945   0.000000
    24  H    4.900491   1.094874   1.748550   0.000000
    25  C    6.721981   1.531163   2.151561   2.149862   0.000000
    26  H    7.628402   2.173408   2.496528   3.067705   1.102977
    27  H    6.442234   2.176977   3.071049   2.533946   1.104020
    28  O    7.193895   2.374958   2.620201   2.571388   1.412408
    29  C    8.314973   3.674872   3.941184   3.919735   2.356636
    30  H    8.764903   4.400579   4.524875   4.483568   3.276202
    31  H    8.171632   4.060628   4.572016   4.213387   2.659720
    32  H    9.119962   4.042617   4.184211   4.536817   2.659095
                   26         27         28         29         30
    26  H    0.000000
    27  H    1.771883   0.000000
    28  O    2.081982   2.080435   0.000000
    29  C    2.628601   2.648803   1.412985   0.000000
    30  H    3.615683   3.628278   2.026412   1.092307   0.000000
    31  H    3.019913   2.473573   2.089060   1.101308   1.784383
    32  H    2.451185   3.053946   2.088732   1.100974   1.784270
                   31         32
    31  H    0.000000
    32  H    1.783868   0.000000
 Stoichiometry    C9H18N2O3
 Framework group  C1[X(C9H18N2O3)]
 Deg. of freedom    90
 Full point group                 C1      NOp   1
 Largest Abelian subgroup         C1      NOp   1
 Largest concise Abelian subgroup C1      NOp   1
                         Standard orientation:                         
 ---------------------------------------------------------------------
 Center     Atomic      Atomic             Coordinates (Angstroms)
 Number     Number       Type             X           Y           Z
 ---------------------------------------------------------------------
      1          6           0       -1.711099    2.760431   -0.788963
      2          6           0       -0.610231    2.309430    0.160926
      3          8           0        0.006576    3.121002    0.837565
      4          7           0       -0.354763    0.949472    0.236892
      5          6           0        0.810940    0.519667    1.004921
      6          6           0        1.983247    0.174401    0.066468
      7          8           0        2.473006    1.066176   -0.615955
      8          7           0        2.400945   -1.137492   -0.040538
      9          6           0        2.013560   -2.236655    0.832612
     10          6           0        3.554419   -1.415843   -0.891425
     11          1           0       -1.863434    3.825742   -0.620637
     12          1           0       -2.655243    2.231491   -0.628925
     13          1           0       -1.412758    2.608613   -1.831857
     14          1           0        1.124333    1.382683    1.594054
     15          1           0        0.531474   -0.284936    1.688115
     16          1           0        1.015951   -2.096935    1.244361
     17          1           0        2.001500   -3.164844    0.252110
     18          1           0        2.720480   -2.370094    1.664153
     19          1           0        3.345769   -2.280365   -1.530989
     20          1           0        3.749922   -0.538632   -1.504433
     21          1           0        4.444397   -1.638860   -0.287729
     22          6           0       -1.064597   -0.063818   -0.535531
     23          1           0       -1.477155    0.364974   -1.449912
     24          1           0       -0.357044   -0.837156   -0.851863
     25          6           0       -2.192370   -0.724472    0.262043
     26          1           0       -2.954972    0.024818    0.533267
     27          1           0       -1.801912   -1.139274    1.207739
     28          8           0       -2.744102   -1.742978   -0.546123
     29          6           0       -3.826986   -2.410970    0.068430
     30          1           0       -4.178552   -3.171719   -0.632140
     31          1           0       -3.524511   -2.902959    1.006159
     32          1           0       -4.656651   -1.723037    0.293258
 ---------------------------------------------------------------------
 Rotational constants (GHZ):      0.6810799      0.4718067      0.3092942
 Standard basis: 6-31G(d,p) (6D, 7F)
 There are   300 symmetry adapted basis functions of A   symmetry.
 Integral buffers will be    131072 words long.
 Raffenetti 2 integral format.
 Two-electron integral symmetry is turned on.
   300 basis functions,   518 primitive gaussians,   300 cartesian basis functions
    55 alpha electrons       55 beta electrons
       nuclear repulsion energy       966.6702805018 Hartrees.
 NAtoms=   32 NActive=   32 NUniq=   32 SFac= 1.00D+00 NAtFMM=   60 NAOKFM=F Big=F
 One-electron integrals computed using PRISM.
 NBasis=   300 RedAO= T  NBF=   300
 NBsUse=   300 1.00D-06 NBFU=   300
 Initial guess read from the read-write file.
 B after Tr=     0.000000    0.000000    0.000000
         Rot=    1.000000    0.000000    0.000000    0.000000 Ang=   0.00 deg.
 Initial guess orbital symmetries:
       Occupied  (A) (A) (A) (A) (A) (A) (A) (A) (A) (A) (A) (A)
                 (A) (A) (A) (A) (A) (A) (A) (A) (A) (A) (A) (A)
                 (A) (A) (A) (A) (A) (A) (A) (A) (A) (A) (A) (A)
                 (A) (A) (A) (A) (A) (A) (A) (A) (A) (A) (A) (A)
                 (A) (A) (A) (A) (A) (A) (A)
       Virtual   (A) (A) (A) (A) (A) (A) (A) (A) (A) (A) (A) (A)
                 (A) (A) (A) (A) (A) (A) (A) (A) (A) (A) (A) (A)
                 (A) (A) (A) (A) (A) (A) (A) (A) (A) (A) (A) (A)
                 (A) (A) (A) (A) (A) (A) (A) (A) (A) (A) (A) (A)
                 (A) (A) (A) (A) (A) (A) (A) (A) (A) (A) (A) (A)
                 (A) (A) (A) (A) (A) (A) (A) (A) (A) (A) (A) (A)
                 (A) (A) (A) (A) (A) (A) (A) (A) (A) (A) (A) (A)
                 (A) (A) (A) (A) (A) (A) (A) (A) (A) (A) (A) (A)
                 (A) (A) (A) (A) (A) (A) (A) (A) (A) (A) (A) (A)
                 (A) (A) (A) (A) (A) (A) (A) (A) (A) (A) (A) (A)
                 (A) (A) (A) (A) (A) (A) (A) (A) (A) (A) (A) (A)
                 (A) (A) (A) (A) (A) (A) (A) (A) (A) (A) (A) (A)
                 (A) (A) (A) (A) (A) (A) (A) (A) (A) (A) (A) (A)
                 (A) (A) (A) (A) (A) (A) (A) (A) (A) (A) (A) (A)
                 (A) (A) (A) (A) (A) (A) (A) (A) (A) (A) (A) (A)
                 (A) (A) (A) (A) (A) (A) (A) (A) (A) (A) (A) (A)
                 (A) (A) (A) (A) (A) (A) (A) (A) (A) (A) (A) (A)
                 (A) (A) (A) (A) (A) (A) (A) (A) (A) (A) (A) (A)
                 (A) (A) (A) (A) (A) (A) (A) (A) (A) (A) (A) (A)
                 (A) (A) (A) (A) (A) (A) (A) (A) (A) (A) (A) (A)
                 (A) (A) (A) (A) (A)
 Harris functional with IExCor=  402 diagonalized for initial guess.
 ExpMin= 1.61D-01 ExpMax= 5.48D+03 ExpMxC= 8.25D+02 IAcc=1 IRadAn=         1 AccDes= 0.00D+00
 HarFok:  IExCor=  402 AccDes= 0.00D+00 IRadAn=         1 IDoV= 1
 ScaDFX=  1.000000  1.000000  1.000000  1.000000
 FoFCou: FMM=F IPFlag=           0 FMFlag=      100000 FMFlg1=           0
         NFxFlg=           0 DoJE=T BraDBF=F KetDBF=T FulRan=T
         Omega=  0.000000  0.000000  1.000000  0.000000  0.000000 ICntrl=     500 IOpCl=  0
         NMat0=    1 NMatS0=    1 NMatT0=    0 NMatD0=    1 NMtDS0=    0 NMtDT0=    0
         I1Cent=           4 NGrid=           0.
 Petite list used in FoFCou.
