 Entering Gaussian System, Link 0=/data/opt/apps/g09-C01/g09
 Initial command:
 /data/opt/apps/g09-C01/l1.exe /tmp/g09-tuu61186-1178322c21e64fea8x/Gau-1178458.inp -scrdir=/tmp/g09-tuu61186-1178322c21e64fea8x/
 Entering Link 1 = /data/opt/apps/g09-C01/l1.exe PID=   1178464.
  
 Copyright (c) 1988,1990,1992,1993,1995,1998,2003,2009,2011,
            Gaussian, Inc.  All Rights Reserved.
  
 This is part of the Gaussian(R) 09 program.  It is based on
 the Gaussian(R) 03 system (copyright 2003, Gaussian, Inc.),
 the Gaussian(R) 98 system (copyright 1998, Gaussian, Inc.),
 the Gaussian(R) 94 system (copyright 1995, Gaussian, Inc.),
 the Gaussian 92(TM) system (copyright 1992, Gaussian, Inc.),
 the Gaussian 90(TM) system (copyright 1990, Gaussian, Inc.),
 the Gaussian 88(TM) system (copyright 1988, Gaussian, Inc.),
 the Gaussian 86(TM) system (copyright 1986, Carnegie Mellon
 University), and the Gaussian 82(TM) system (copyright 1983,
 Carnegie Mellon University). Gaussian is a federally registered
 trademark of Gaussian, Inc.
  
 This software contains proprietary and confidential information,
 including trade secrets, belonging to Gaussian, Inc.
  
 This software is provided under written license and may be
 used, copied, transmitted, or stored only in accord with that
 written license.
  
 The following legend is applicable only to US Government
 contracts under FAR:
  
                    RESTRICTED RIGHTS LEGEND
  
 Use, reproduction and disclosure by the US Government is
 subject to restrictions as set forth in subparagraphs (a)
 and (c) of the Commercial Computer Software - Restricted
 Rights clause in FAR 52.227-19.
  
 Gaussian, Inc.
 340 Quinnipiac St., Bldg. 40, Wallingford CT 06492
  
  
 ---------------------------------------------------------------
 Warning -- This program may not be used in any manner that
 competes with the business of Gaussian, Inc. or will provide
 assistance to any competitor of Gaussian, Inc.  The licensee
 of this program is prohibited from giving any competitor of
 Gaussian, Inc. access to this program.  By using this program,
 the user acknowledges that Gaussian, Inc. is engaged in the
 business of creating and licensing software in the field of
 computational chemistry and represents and warrants to the
 licensee that it is not a competitor of Gaussian, Inc. and that
 it will not use this program in any manner prohibited above.
 ---------------------------------------------------------------
  

 Cite this work as:
 Gaussian 09, Revision C.01,
 M. J. Frisch, G. W. Trucks, H. B. Schlegel, G. E. Scuseria, 
 M. A. Robb, J. R. Cheeseman, G. Scalmani, V. Barone, B. Mennucci, 
 G. A. Petersson, H. Nakatsuji, M. Caricato, X. Li, H. P. Hratchian, 
 A. F. Izmaylov, J. Bloino, G. Zheng, J. L. Sonnenberg, M. Hada, 
 M. Ehara, K. Toyota, R. Fukuda, J. Hasegawa, M. Ishida, T. Nakajima, 
 Y. Honda, O. Kitao, H. Nakai, T. Vreven, J. A. Montgomery, Jr., 
 J. E. Peralta, F. Ogliaro, M. Bearpark, J. J. Heyd, E. Brothers, 
 K. N. Kudin, V. N. Staroverov, T. Keith, R. Kobayashi, J. Normand, 
 K. Raghavachari, A. Rendell, J. C. Burant, S. S. Iyengar, J. Tomasi, 
 M. Cossi, N. Rega, J. M. Millam, M. Klene, J. E. Knox, J. B. Cross, 
 V. Bakken, C. Adamo, J. Jaramillo, R. Gomperts, R. E. Stratmann, 
 O. Yazyev, A. J. Austin, R. Cammi, C. Pomelli, J. W. Ochterski, 
 R. L. Martin, K. Morokuma, V. G. Zakrzewski, G. A. Voth, 
 P. Salvador, J. J. Dannenberg, S. Dapprich, A. D. Daniels, 
 O. Farkas, J. B. Foresman, J. V. Ortiz, J. Cioslowski, 
 and D. J. Fox, Gaussian, Inc., Wallingford CT, 2010.
 
 ******************************************
 Gaussian 09:  EM64L-G09RevC.01 23-Sep-2011
                24-Apr-2026 
 ******************************************
 %nprocshared=8
 Will use up to    8 processors via shared memory.
 %mem=14GB
 -----------------------------------
 # opt=modredundant b3lyp/6-31g(d,p)
 -----------------------------------
 1/14=-1,18=120,19=15,26=3,38=1/1,3;
 2/9=110,12=2,17=6,18=5,40=1/2;
 3/5=1,6=6,7=101,11=2,16=1,25=1,30=1,71=1,74=-5/1,2,3;
 4//1;
 5/5=2,38=5/2;
 6/7=2,8=2,9=2,10=2,28=1/1;
 7//1,2,3,16;
 1/14=-1,18=20,19=15/3(2);
 2/9=110/2;
 99//99;
 2/9=110/2;
 3/5=1,6=6,7=101,11=2,16=1,25=1,30=1,71=1,74=-5/1,2,3;
 4/5=5,16=3/1;
 5/5=2,38=5/2;
 7//1,2,3,16;
 1/14=-1,18=20,19=15/3(-5);
 2/9=110/2;
 6/7=2,8=2,9=2,10=2,19=2,28=1/1;
 99/9=1/99;
 ---------------
 QM dihedral opt
 ---------------
 Charge =  0 Multiplicity = 1
 Symbolic Z-Matrix:
 C                     1.03095   2.81431  -0.89168 
 C                    -0.05384   1.95834  -0.25728 
 O                    -1.24468   2.20069  -0.45584 
 N                     0.32868   0.92272   0.55792 
 C                    -0.75118   0.13759   1.15464 
 C                    -1.36686  -0.88167   0.17549 
 O                    -0.62999  -1.70942  -0.36208 
 N                    -2.72072  -0.88171   0.00455 
 C                    -3.61821   0.18305   0.45138 
 C                    -3.32156  -1.95128  -0.78411 
 H                     0.53872   3.50916  -1.57109 
 H                     1.75916   2.21762  -1.44804 
 H                     1.5771    3.38827  -0.13538 
 H                    -0.32118  -0.45788   1.96479 
 H                    -1.4867    0.81644   1.58435 
 H                    -3.1207    1.15055   0.38572 
 H                    -4.47923   0.20866  -0.22182 
 H                    -3.99374   0.01012   1.46868 
 H                    -3.70064  -1.56635  -1.73905 
 H                    -2.56313  -2.7062   -0.98231 
 H                    -4.1574   -2.39865  -0.2342 
 C                     1.71806   0.56466   0.83703 
 H                     2.35086   1.4484    0.73689 
 H                     1.79319   0.24621   1.88221 
 C                     2.27805  -0.54249  -0.05967 
 H                     2.18074  -0.25582  -1.12053 
 H                     1.70755  -1.47033   0.0724 
 O                     3.63926  -0.6972    0.30317 
 C                     4.27752  -1.73793  -0.40677 
 H                     5.31095  -1.78602  -0.05474 
 H                     3.79378  -2.71064  -0.22933 
 H                     4.2807   -1.55065  -1.49217 
 
 The following ModRedundant input section has been read:
 D       2       4       5       6 F                                           
 D       4       5       6       8 S  36 10.000                                

 GradGradGradGradGradGradGradGradGradGradGradGradGradGradGradGradGradGrad
 Berny optimization.
 Initialization pass.
                           ----------------------------
                           !    Initial Parameters    !
                           ! (Angstroms and Degrees)  !
 --------------------------                            --------------------------
 ! Name  Definition              Value          Derivative Info.                !
 --------------------------------------------------------------------------------
 ! R1    R(1,2)                  1.5205         estimate D2E/DX2                !
 ! R2    R(1,11)                 1.0894         estimate D2E/DX2                !
 ! R3    R(1,12)                 1.0936         estimate D2E/DX2                !
 ! R4    R(1,13)                 1.0953         estimate D2E/DX2                !
 ! R5    R(2,3)                  1.2314         estimate D2E/DX2                !
 ! R6    R(2,4)                  1.3724         estimate D2E/DX2                !
 ! R7    R(4,5)                  1.4624         estimate D2E/DX2                !
 ! R8    R(4,22)                 1.4617         estimate D2E/DX2                !
 ! R9    R(5,6)                  1.5417         estimate D2E/DX2                !
 ! R10   R(5,14)                 1.0935         estimate D2E/DX2                !
 ! R11   R(5,15)                 1.0893         estimate D2E/DX2                !
 ! R12   R(6,7)                  1.2317         estimate D2E/DX2                !
 ! R13   R(6,8)                  1.3646         estimate D2E/DX2                !
 ! R14   R(8,9)                  1.4625         estimate D2E/DX2                !
 ! R15   R(8,10)                 1.4584         estimate D2E/DX2                !
 ! R16   R(9,16)                 1.0899         estimate D2E/DX2                !
 ! R17   R(9,17)                 1.0933         estimate D2E/DX2                !
 ! R18   R(9,18)                 1.0981         estimate D2E/DX2                !
 ! R19   R(10,19)                1.0972         estimate D2E/DX2                !
 ! R20   R(10,20)                1.0883         estimate D2E/DX2                !
 ! R21   R(10,21)                1.096          estimate D2E/DX2                !
 ! R22   R(22,23)                1.0915         estimate D2E/DX2                !
 ! R23   R(22,24)                1.0952         estimate D2E/DX2                !
 ! R24   R(22,25)                1.5308         estimate D2E/DX2                !
 ! R25   R(25,26)                1.1032         estimate D2E/DX2                !
 ! R26   R(25,27)                1.0972         estimate D2E/DX2                !
 ! R27   R(25,28)                1.4172         estimate D2E/DX2                !
 ! R28   R(28,29)                1.4123         estimate D2E/DX2                !
 ! R29   R(29,30)                1.0928         estimate D2E/DX2                !
 ! R30   R(29,31)                1.1008         estimate D2E/DX2                !
 ! R31   R(29,32)                1.1014         estimate D2E/DX2                !
 ! A1    A(2,1,11)             107.2734         estimate D2E/DX2                !
 ! A2    A(2,1,12)             112.3457         estimate D2E/DX2                !
 ! A3    A(2,1,13)             111.2628         estimate D2E/DX2                !
 ! A4    A(11,1,12)            109.3681         estimate D2E/DX2                !
 ! A5    A(11,1,13)            108.7656         estimate D2E/DX2                !
 ! A6    A(12,1,13)            107.7684         estimate D2E/DX2                !
 ! A7    A(1,2,3)              120.7897         estimate D2E/DX2                !
 ! A8    A(1,2,4)              118.2816         estimate D2E/DX2                !
 ! A9    A(3,2,4)              120.9212         estimate D2E/DX2                !
 ! A10   A(2,4,5)              116.2129         estimate D2E/DX2                !
 ! A11   A(2,4,22)             124.2792         estimate D2E/DX2                !
 ! A12   A(5,4,22)             119.5027         estimate D2E/DX2                !
 ! A13   A(4,5,6)              112.9978         estimate D2E/DX2                !
 ! A14   A(4,5,14)             107.7151         estimate D2E/DX2                !
 ! A15   A(4,5,15)             108.9651         estimate D2E/DX2                !
 ! A16   A(6,5,14)             105.5191         estimate D2E/DX2                !
 ! A17   A(6,5,15)             113.137          estimate D2E/DX2                !
 ! A18   A(14,5,15)            108.2174         estimate D2E/DX2                !
 ! A19   A(5,6,7)              118.8546         estimate D2E/DX2                !
 ! A20   A(5,6,8)              118.4116         estimate D2E/DX2                !
 ! A21   A(7,6,8)              122.6046         estimate D2E/DX2                !
 ! A22   A(6,8,9)              124.7883         estimate D2E/DX2                !
 ! A23   A(6,8,10)             118.4569         estimate D2E/DX2                !
 ! A24   A(9,8,10)             116.5086         estimate D2E/DX2                !
 ! A25   A(8,9,16)             110.3502         estimate D2E/DX2                !
 ! A26   A(8,9,17)             108.1941         estimate D2E/DX2                !
 ! A27   A(8,9,18)             112.226          estimate D2E/DX2                !
 ! A28   A(16,9,17)            107.554          estimate D2E/DX2                !
 ! A29   A(16,9,18)            110.5916         estimate D2E/DX2                !
 ! A30   A(17,9,18)            107.7477         estimate D2E/DX2                !
 ! A31   A(8,10,19)            110.8369         estimate D2E/DX2                !
 ! A32   A(8,10,20)            108.6692         estimate D2E/DX2                !
 ! A33   A(8,10,21)            110.0127         estimate D2E/DX2                !
 ! A34   A(19,10,20)           109.0043         estimate D2E/DX2                !
 ! A35   A(19,10,21)           108.4458         estimate D2E/DX2                !
 ! A36   A(20,10,21)           109.8591         estimate D2E/DX2                !
 ! A37   A(4,22,23)            109.5854         estimate D2E/DX2                !
 ! A38   A(4,22,24)            108.5824         estimate D2E/DX2                !
 ! A39   A(4,22,25)            114.3951         estimate D2E/DX2                !
 ! A40   A(23,22,24)           106.4513         estimate D2E/DX2                !
 ! A41   A(23,22,25)           108.6472         estimate D2E/DX2                !
 ! A42   A(24,22,25)           108.8819         estimate D2E/DX2                !
 ! A43   A(22,25,26)           110.0648         estimate D2E/DX2                !
 ! A44   A(22,25,27)           110.5419         estimate D2E/DX2                !
 ! A45   A(22,25,28)           106.2801         estimate D2E/DX2                !
 ! A46   A(26,25,27)           106.8357         estimate D2E/DX2                !
 ! A47   A(26,25,28)           111.0565         estimate D2E/DX2                !
 ! A48   A(27,25,28)           112.1037         estimate D2E/DX2                !
 ! A49   A(25,28,29)           112.6953         estimate D2E/DX2                !
 ! A50   A(28,29,30)           107.3306         estimate D2E/DX2                !
 ! A51   A(28,29,31)           111.8113         estimate D2E/DX2                !
 ! A52   A(28,29,32)           111.8009         estimate D2E/DX2                !
 ! A53   A(30,29,31)           108.9519         estimate D2E/DX2                !
 ! A54   A(30,29,32)           108.7957         estimate D2E/DX2                !
 ! A55   A(31,29,32)           108.0813         estimate D2E/DX2                !
 ! D1    D(11,1,2,3)            -6.4712         estimate D2E/DX2                !
 ! D2    D(11,1,2,4)           174.5203         estimate D2E/DX2                !
 ! D3    D(12,1,2,3)          -126.691          estimate D2E/DX2                !
 ! D4    D(12,1,2,4)            54.3004         estimate D2E/DX2                !
 ! D5    D(13,1,2,3)           112.3778         estimate D2E/DX2                !
 ! D6    D(13,1,2,4)           -66.6307         estimate D2E/DX2                !
 ! D7    D(1,2,4,5)            179.4068         estimate D2E/DX2                !
 ! D8    D(1,2,4,22)            -1.4266         estimate D2E/DX2                !
 ! D9    D(3,2,4,5)              0.3996         estimate D2E/DX2                !
 ! D10   D(3,2,4,22)           179.5662         estimate D2E/DX2                !
 ! D11   D(2,4,5,6)             78.67           Frozen                          !
 ! D12   D(2,4,5,14)          -165.181          estimate D2E/DX2                !
 ! D13   D(2,4,5,15)           -48.0005         estimate D2E/DX2                !
 ! D14   D(22,4,5,6)          -100.5387         estimate D2E/DX2                !
 ! D15   D(22,4,5,14)           15.6103         estimate D2E/DX2                !
 ! D16   D(22,4,5,15)          132.7907         estimate D2E/DX2                !
 ! D17   D(2,4,22,23)           27.1572         estimate D2E/DX2                !
 ! D18   D(2,4,22,24)          143.0534         estimate D2E/DX2                !
 ! D19   D(2,4,22,25)          -95.1193         estimate D2E/DX2                !
 ! D20   D(5,4,22,23)         -153.702          estimate D2E/DX2                !
 ! D21   D(5,4,22,24)          -37.8057         estimate D2E/DX2                !
 ! D22   D(5,4,22,25)           84.0215         estimate D2E/DX2                !
 ! D23   D(4,5,6,7)             56.2783         estimate D2E/DX2                !
 ! D24   D(4,5,6,8)           -127.744          Scan                            !
 ! D25   D(14,5,6,7)           -61.1683         estimate D2E/DX2                !
 ! D26   D(14,5,6,8)           114.8094         estimate D2E/DX2                !
 ! D27   D(15,5,6,7)          -179.299          estimate D2E/DX2                !
 ! D28   D(15,5,6,8)            -3.3213         estimate D2E/DX2                !
 ! D29   D(5,6,8,9)             13.7037         estimate D2E/DX2                !
 ! D30   D(5,6,8,10)          -172.2077         estimate D2E/DX2                !
 ! D31   D(7,6,8,9)           -170.4785         estimate D2E/DX2                !
 ! D32   D(7,6,8,10)             3.6101         estimate D2E/DX2                !
 ! D33   D(6,8,9,16)            33.2742         estimate D2E/DX2                !
 ! D34   D(6,8,9,17)           150.6947         estimate D2E/DX2                !
 ! D35   D(6,8,9,18)           -90.5597         estimate D2E/DX2                !
 ! D36   D(10,8,9,16)         -140.9184         estimate D2E/DX2                !
 ! D37   D(10,8,9,17)          -23.498          estimate D2E/DX2                !
 ! D38   D(10,8,9,18)           95.2477         estimate D2E/DX2                !
 ! D39   D(6,8,10,19)         -110.0952         estimate D2E/DX2                !
 ! D40   D(6,8,10,20)            9.6653         estimate D2E/DX2                !
 ! D41   D(6,8,10,21)          129.9756         estimate D2E/DX2                !
 ! D42   D(9,8,10,19)           64.4811         estimate D2E/DX2                !
 ! D43   D(9,8,10,20)         -175.7583         estimate D2E/DX2                !
 ! D44   D(9,8,10,21)          -55.448          estimate D2E/DX2                !
 ! D45   D(4,22,25,26)          56.4461         estimate D2E/DX2                !
 ! D46   D(4,22,25,27)         -61.3384         estimate D2E/DX2                !
 ! D47   D(4,22,25,28)         176.7876         estimate D2E/DX2                !
 ! D48   D(23,22,25,26)        -66.3402         estimate D2E/DX2                !
 ! D49   D(23,22,25,27)        175.8753         estimate D2E/DX2                !
 ! D50   D(23,22,25,28)         54.0012         estimate D2E/DX2                !
 ! D51   D(24,22,25,26)        178.1092         estimate D2E/DX2                !
 ! D52   D(24,22,25,27)         60.3247         estimate D2E/DX2                !
 ! D53   D(24,22,25,28)        -61.5493         estimate D2E/DX2                !
 ! D54   D(22,25,28,29)        177.2876         estimate D2E/DX2                !
 ! D55   D(26,25,28,29)        -63.0148         estimate D2E/DX2                !
 ! D56   D(27,25,28,29)         56.4133         estimate D2E/DX2                !
 ! D57   D(25,28,29,30)       -179.471          estimate D2E/DX2                !
 ! D58   D(25,28,29,31)        -60.0427         estimate D2E/DX2                !
 ! D59   D(25,28,29,32)         61.2979         estimate D2E/DX2                !
 --------------------------------------------------------------------------------
 Trust Radius=3.00D-01 FncErr=1.00D-07 GrdErr=1.00D-06
 Number of optimizations in scan=  37
 Number of steps in this run=    155 maximum allowed number of steps=    192.
 GradGradGradGradGradGradGradGradGradGradGradGradGradGradGradGradGradGrad

                          Input orientation:                          
 ---------------------------------------------------------------------
 Center     Atomic      Atomic             Coordinates (Angstroms)
 Number     Number       Type             X           Y           Z
 ---------------------------------------------------------------------
      1          6           0        1.030945    2.814306   -0.891683
      2          6           0       -0.053838    1.958342   -0.257284
      3          8           0       -1.244676    2.200694   -0.455837
      4          7           0        0.328678    0.922719    0.557924
      5          6           0       -0.751179    0.137591    1.154641
      6          6           0       -1.366862   -0.881669    0.175491
      7          8           0       -0.629993   -1.709420   -0.362082
      8          7           0       -2.720720   -0.881713    0.004551
      9          6           0       -3.618212    0.183046    0.451381
     10          6           0       -3.321555   -1.951282   -0.784105
     11          1           0        0.538716    3.509164   -1.571090
     12          1           0        1.759158    2.217622   -1.448035
     13          1           0        1.577103    3.388273   -0.135377
     14          1           0       -0.321176   -0.457877    1.964790
     15          1           0       -1.486701    0.816444    1.584354
     16          1           0       -3.120704    1.150555    0.385723
     17          1           0       -4.479230    0.208664   -0.221823
     18          1           0       -3.993738    0.010121    1.468677
     19          1           0       -3.700641   -1.566352   -1.739046
     20          1           0       -2.563132   -2.706201   -0.982305
     21          1           0       -4.157401   -2.398651   -0.234201
     22          6           0        1.718060    0.564661    0.837034
     23          1           0        2.350863    1.448403    0.736894
     24          1           0        1.793191    0.246207    1.882206
     25          6           0        2.278048   -0.542488   -0.059673
     26          1           0        2.180739   -0.255824   -1.120529
     27          1           0        1.707549   -1.470328    0.072396
     28          8           0        3.639255   -0.697204    0.303174
     29          6           0        4.277521   -1.737926   -0.406765
     30          1           0        5.310951   -1.786015   -0.054738
     31          1           0        3.793782   -2.710636   -0.229326
     32          1           0        4.280699   -1.550653   -1.492167
 ---------------------------------------------------------------------
                    Distance matrix (angstroms):
                    1          2          3          4          5
     1  C    0.000000
     2  C    1.520490   0.000000
     3  O    2.396859   1.231362   0.000000
     4  N    2.484480   1.372369   2.266357   0.000000
     5  C    3.811589   2.407270   2.663376   1.462391   0.000000
     6  C    4.533053   3.158637   3.148725   2.505380   1.541652
     7  O    4.848019   3.714218   3.959244   2.948494   2.393028
     8  N    5.342170   3.904706   3.448463   3.586227   2.498155
     9  C    5.508358   4.044582   3.244630   4.017015   2.952375
    10  C    6.454972   5.122565   4.654040   4.835817   3.837833
    11  H    1.089363   2.117134   2.477170   3.356563   4.523377
    12  H    1.093551   2.184506   3.163505   2.783329   4.171600
    13  H    1.095320   2.172449   3.078226   2.849243   4.201426
    14  H    4.549159   3.293508   3.712181   2.075482   1.093538
    15  H    4.057185   2.597818   2.477318   2.088170   1.089260
    16  H    4.651454   3.235992   2.308787   3.461185   2.689234
    17  H    6.131893   4.758858   3.805954   4.922790   3.974678
    18  H    6.219501   4.722004   4.007456   4.510608   3.260223
    19  H    6.503545   5.283773   4.676433   5.263740   4.469471
    20  H    6.587989   5.346043   5.108142   4.889165   3.992100
    21  H    7.384182   5.985244   5.448584   5.637718   4.468082
    22  C    2.919159   2.505893   3.622972   1.461674   2.525946
    23  H    2.502027   2.651606   3.862182   2.097047   3.393436
    24  H    3.856243   3.304594   4.302918   2.087149   2.648578
    25  C    3.676353   3.425039   4.482363   2.515611   3.333659
    26  H    3.286350   3.262063   4.267290   2.763385   3.731932
    27  H    4.443572   3.868714   4.740366   2.804228   3.130815
    28  O    4.534497   4.583118   5.729458   3.694451   4.549482
    29  C    5.612327   5.696087   6.783052   4.858294   5.589577
    30  H    6.338918   6.545395   7.683162   5.704002   6.473969
    31  H    6.212646   6.050150   7.039782   5.082123   5.539353
    32  H    5.474883   5.711934   6.758428   5.093026   5.930898
                    6          7          8          9         10
     6  C    0.000000
     7  O    1.231719   0.000000
     8  N    1.364607   2.278302   0.000000
     9  C    2.505656   3.629408   1.462484   0.000000
    10  C    2.426051   2.735161   1.458410   2.483906   0.000000
    11  H    5.095212   5.482810   5.690902   5.695042   6.733313
    12  H    4.691849   4.723240   5.637836   6.055030   6.605619
    13  H    5.195765   5.559599   6.060004   6.132623   7.275201
    14  H    2.115337   2.660087   3.127297   3.683970   4.334623
    15  H    2.209716   3.301901   2.627226   2.495628   4.078798
    16  H    2.692600   3.865529   2.106037   1.089908   3.321179
    17  H    3.321674   4.302946   2.081472   1.093257   2.514307
    18  H    3.060735   4.198009   2.135324   1.098096   3.061692
    19  H    3.095281   3.368290   2.114026   2.804489   1.097173
    20  H    2.469913   2.261697   2.080258   3.393582   1.088297
    21  H    3.202529   3.596387   2.102892   2.725052   1.095980
    22  C    3.470771   3.481763   4.742130   5.363782   5.861380
    23  H    4.423334   4.479408   5.629096   6.108396   6.785840
    24  H    3.764428   3.838375   5.017289   5.597726   6.172422
    25  C    3.668203   3.147997   5.010677   5.962672   5.819369
    26  H    3.828423   3.253982   5.067726   6.024229   5.767408
    27  H    3.131956   2.389569   4.467733   5.589365   5.124139
    28  O    5.011141   4.437750   6.369655   7.312156   7.155960
    29  C    5.738576   4.907800   7.062412   8.171239   7.611430
    30  H    6.742702   5.949382   8.082637   9.157691   8.664840
    31  H    5.490104   4.537603   6.770406   7.985888   7.177215
    32  H    5.926514   5.041547   7.190794   8.317204   7.645660
                   11         12         13         14         15
    11  H    0.000000
    12  H    1.781208   0.000000
    13  H    1.775988   1.768230   0.000000
    14  H    5.383240   4.809725   4.775671   0.000000
    15  H    4.616263   4.657712   4.354156   1.768353   0.000000
    16  H    4.773207   5.321123   5.229562   3.594143   2.053853
    17  H    6.155778   6.667608   6.840801   4.744994   3.547802
    18  H    6.482795   6.817337   6.709633   3.735353   2.636052
    19  H    6.615226   6.649252   7.414489   5.134969   4.650187
    20  H    6.971290   6.568343   7.416296   4.332055   4.489484
    21  H    7.664402   7.601910   8.147564   4.828953   4.558137
    22  C    3.982463   2.820551   2.989688   2.544779   3.300360
    23  H    3.585722   2.390759   2.263329   3.504486   3.980510
    24  H    4.913843   3.870160   3.740309   2.230045   3.342391
    25  C    4.661067   3.132891   3.993487   3.295690   4.326992
    26  H    4.132116   2.530400   3.822871   3.977386   4.681481
    27  H    5.372388   3.989405   4.864791   2.953293   4.209344
    28  O    5.551553   3.885577   4.597382   4.301541   5.496178
    29  C    6.547234   4.803411   5.800330   5.330179   6.611779
    30  H    7.287830   5.530427   6.381331   6.128890   7.461065
    31  H    7.147146   5.469248   6.489929   5.178991   6.604031
    32  H    6.293680   4.534315   5.791658   5.858495   6.952052
                   16         17         18         19         20
    16  H    0.000000
    17  H    1.761211   0.000000
    18  H    1.798768   1.770003   0.000000
    19  H    3.497507   2.461473   3.586176   0.000000
    20  H    4.130007   3.570182   3.928403   1.779281   0.000000
    21  H    3.749121   2.627131   2.954448   1.779300   1.787719
    22  C    4.894956   6.297167   5.773311   6.367081   5.686575
    23  H    5.490909   7.007586   6.546612   7.199981   6.660610
    24  H    5.215714   6.616012   5.806487   6.825029   5.991635
    25  C    5.675500   6.800833   6.478930   6.293911   5.382372
    26  H    5.687881   6.736365   6.700663   6.057283   5.341139
    27  H    5.502656   6.417306   6.053594   5.704302   4.569299
    28  O    7.008429   8.185720   7.753792   7.668126   6.645158
    29  C    7.981547   8.972408   8.659485   8.090456   6.932773
    30  H    8.939254   9.992713   9.598132   9.170275   7.981748
    31  H    7.943374   8.772975   8.422066   7.730137   6.401356
    32  H    8.099615   9.024706   8.925745   7.985173   6.959402
                   21         22         23         24         25
    21  H    0.000000
    22  C    6.667069   0.000000
    23  H    7.622359   1.091544   0.000000
    24  H    6.847189   1.095190   1.751574   0.000000
    25  C    6.700060   1.530833   2.145569   2.151283   0.000000
    26  H    6.749022   2.172400   2.526530   3.068981   1.103205
    27  H    5.945875   2.173928   3.061764   2.495844   1.097177
    28  O    7.998221   2.359725   2.540019   2.606016   1.417208
    29  C    8.462520   3.660571   3.895210   3.917661   2.355300
    30  H    9.489848   4.385180   4.455363   4.500701   3.277939
    31  H    7.957303   4.021606   4.507017   4.147753   2.650867
    32  H    8.573396   4.057937   4.205629   4.561008   2.660648
                   26         27         28         29         30
    26  H    0.000000
    27  H    1.766918   0.000000
    28  O    2.085429   2.093434   0.000000
    29  C    2.665067   2.627919   1.412267   0.000000
    30  H    3.643573   3.619437   2.026864   1.092801   0.000000
    31  H    3.069569   2.445765   2.088383   1.100751   1.785275
    32  H    2.494901   3.012542   2.088797   1.101444   1.784101
                   31         32
    31  H    0.000000
    32  H    1.782531   0.000000
 Stoichiometry    C9H18N2O3
 Framework group  C1[X(C9H18N2O3)]
 Deg. of freedom    90
 Full point group                 C1      NOp   1
 Largest Abelian subgroup         C1      NOp   1
 Largest concise Abelian subgroup C1      NOp   1
                         Standard orientation:                         
 ---------------------------------------------------------------------
 Center     Atomic      Atomic             Coordinates (Angstroms)
 Number     Number       Type             X           Y           Z
 ---------------------------------------------------------------------
      1          6           0        1.030945    2.814306   -0.891683
      2          6           0       -0.053838    1.958342   -0.257284
      3          8           0       -1.244676    2.200694   -0.455837
      4          7           0        0.328678    0.922719    0.557924
      5          6           0       -0.751179    0.137591    1.154641
      6          6           0       -1.366862   -0.881669    0.175491
      7          8           0       -0.629993   -1.709420   -0.362082
      8          7           0       -2.720720   -0.881713    0.004551
      9          6           0       -3.618212    0.183046    0.451381
     10          6           0       -3.321555   -1.951282   -0.784105
     11          1           0        0.538716    3.509164   -1.571090
     12          1           0        1.759158    2.217622   -1.448035
     13          1           0        1.577103    3.388273   -0.135377
     14          1           0       -0.321176   -0.457877    1.964790
     15          1           0       -1.486701    0.816444    1.584354
     16          1           0       -3.120704    1.150555    0.385723
     17          1           0       -4.479230    0.208664   -0.221823
     18          1           0       -3.993738    0.010121    1.468677
     19          1           0       -3.700641   -1.566352   -1.739046
     20          1           0       -2.563132   -2.706201   -0.982305
     21          1           0       -4.157401   -2.398651   -0.234201
     22          6           0        1.718060    0.564661    0.837034
     23          1           0        2.350863    1.448403    0.736894
     24          1           0        1.793191    0.246207    1.882206
     25          6           0        2.278048   -0.542488   -0.059673
     26          1           0        2.180739   -0.255824   -1.120529
     27          1           0        1.707549   -1.470328    0.072396
     28          8           0        3.639255   -0.697204    0.303174
     29          6           0        4.277521   -1.737926   -0.406765
     30          1           0        5.310951   -1.786015   -0.054738
     31          1           0        3.793782   -2.710636   -0.229326
     32          1           0        4.280699   -1.550653   -1.492167
 ---------------------------------------------------------------------
 Rotational constants (GHZ):      0.9311969      0.4041810      0.3107229
 Standard basis: 6-31G(d,p) (6D, 7F)
 There are   300 symmetry adapted basis functions of A   symmetry.
 Integral buffers will be    131072 words long.
 Raffenetti 2 integral format.
 Two-electron integral symmetry is turned on.
   300 basis functions,   518 primitive gaussians,   300 cartesian basis functions
    55 alpha electrons       55 beta electrons
       nuclear repulsion energy       974.9167863936 Hartrees.
 NAtoms=   32 NActive=   32 NUniq=   32 SFac= 1.00D+00 NAtFMM=   60 NAOKFM=F Big=F
 One-electron integrals computed using PRISM.
 NBasis=   300 RedAO= T  NBF=   300
 NBsUse=   300 1.00D-06 NBFU=   300
 Harris functional with IExCor=  402 diagonalized for initial guess.
 ExpMin= 1.61D-01 ExpMax= 5.48D+03 ExpMxC= 8.25D+02 IAcc=1 IRadAn=         1 AccDes= 0.00D+00
 HarFok:  IExCor=  402 AccDes= 0.00D+00 IRadAn=         1 IDoV= 1
 ScaDFX=  1.000000  1.000000  1.000000  1.000000
 FoFCou: FMM=F IPFlag=           0 FMFlag=      100000 FMFlg1=           0
         NFxFlg=           0 DoJE=T BraDBF=F KetDBF=T FulRan=T
         Omega=  0.000000  0.000000  1.000000  0.000000  0.000000 ICntrl=     500 IOpCl=  0
         NMat0=    1 NMatS0=    1 NMatT0=    0 NMatD0=    1 NMtDS0=    0 NMtDT0=    0
         I1Cent=           4 NGrid=           0.
 Petite list used in FoFCou.
 Initial guess orbital symmetries:
       Occupied  (A) (A) (A) (A) (A) (A) (A) (A) (A) (A) (A) (A)
                 (A) (A) (A) (A) (A) (A) (A) (A) (A) (A) (A) (A)
                 (A) (A) (A) (A) (A) (A) (A) (A) (A) (A) (A) (A)
                 (A) (A) (A) (A) (A) (A) (A) (A) (A) (A) (A) (A)
                 (A) (A) (A) (A) (A) (A) (A)
       Virtual   (A) (A) (A) (A) (A) (A) (A) (A) (A) (A) (A) (A)
                 (A) (A) (A) (A) (A) (A) (A) (A) (A) (A) (A) (A)
                 (A) (A) (A) (A) (A) (A) (A) (A) (A) (A) (A) (A)
                 (A) (A) (A) (A) (A) (A) (A) (A) (A) (A) (A) (A)
                 (A) (A) (A) (A) (A) (A) (A) (A) (A) (A) (A) (A)
                 (A) (A) (A) (A) (A) (A) (A) (A) (A) (A) (A) (A)
                 (A) (A) (A) (A) (A) (A) (A) (A) (A) (A) (A) (A)
                 (A) (A) (A) (A) (A) (A) (A) (A) (A) (A) (A) (A)
                 (A) (A) (A) (A) (A) (A) (A) (A) (A) (A) (A) (A)
                 (A) (A) (A) (A) (A) (A) (A) (A) (A) (A) (A) (A)
                 (A) (A) (A) (A) (A) (A) (A) (A) (A) (A) (A) (A)
                 (A) (A) (A) (A) (A) (A) (A) (A) (A) (A) (A) (A)
                 (A) (A) (A) (A) (A) (A) (A) (A) (A) (A) (A) (A)
                 (A) (A) (A) (A) (A) (A) (A) (A) (A) (A) (A) (A)
                 (A) (A) (A) (A) (A) (A) (A) (A) (A) (A) (A) (A)
                 (A) (A) (A) (A) (A) (A) (A) (A) (A) (A) (A) (A)
                 (A) (A) (A) (A) (A) (A) (A) (A) (A) (A) (A) (A)
                 (A) (A) (A) (A) (A) (A) (A) (A) (A) (A) (A) (A)
                 (A) (A) (A) (A) (A) (A) (A) (A) (A) (A) (A) (A)
                 (A) (A) (A) (A) (A) (A) (A) (A) (A) (A) (A) (A)
                 (A) (A) (A) (A) (A)
 The electronic state of the initial guess is 1-A.
 Requested convergence on RMS density matrix=1.00D-08 within 128 cycles.
 Requested convergence on MAX density matrix=1.00D-06.
 Requested convergence on             energy=1.00D-06.
 No special actions if energy rises.
 Keep R1 ints in memory in canonical form, NReq=1033484783.
 Integral accuracy reduced to 1.0D-05 until final iterations.
 Initial convergence to 1.0D-05 achieved.  Increase integral accuracy.
 SCF Done:  E(RB3LYP) =  -688.999295267     A.U. after   14 cycles
             Convg  =    0.8052D-08             -V/T =  2.0094

 **********************************************************************

            Population analysis using the SCF density.

 **********************************************************************

 Orbital symmetries:
       Occupied  (A) (A) (A) (A) (A) (A) (A) (A) (A) (A) (A) (A)
                 (A) (A) (A) (A) (A) (A) (A) (A) (A) (A) (A) (A)
                 (A) (A) (A) (A) (A) (A) (A) (A) (A) (A) (A) (A)
                 (A) (A) (A) (A) (A) (A) (A) (A) (A) (A) (A) (A)
                 (A) (A) (A) (A) (A) (A) (A)
       Virtual   (A) (A) (A) (A) (A) (A) (A) (A) (A) (A) (A) (A)
                 (A) (A) (A) (A) (A) (A) (A) (A) (A) (A) (A) (A)
                 (A) (A) (A) (A) (A) (A) (A) (A) (A) (A) (A) (A)
                 (A) (A) (A) (A) (A) (A) (A) (A) (A) (A) (A) (A)
                 (A) (A) (A) (A) (A) (A) (A) (A) (A) (A) (A) (A)
                 (A) (A) (A) (A) (A) (A) (A) (A) (A) (A) (A) (A)
                 (A) (A) (A) (A) (A) (A) (A) (A) (A) (A) (A) (A)
                 (A) (A) (A) (A) (A) (A) (A) (A) (A) (A) (A) (A)
                 (A) (A) (A) (A) (A) (A) (A) (A) (A) (A) (A) (A)
                 (A) (A) (A) (A) (A) (A) (A) (A) (A) (A) (A) (A)
                 (A) (A) (A) (A) (A) (A) (A) (A) (A) (A) (A) (A)
                 (A) (A) (A) (A) (A) (A) (A) (A) (A) (A) (A) (A)
                 (A) (A) (A) (A) (A) (A) (A) (A) (A) (A) (A) (A)
                 (A) (A) (A) (A) (A) (A) (A) (A) (A) (A) (A) (A)
                 (A) (A) (A) (A) (A) (A) (A) (A) (A) (A) (A) (A)
                 (A) (A) (A) (A) (A) (A) (A) (A) (A) (A) (A) (A)
                 (A) (A) (A) (A) (A) (A) (A) (A) (A) (A) (A) (A)
                 (A) (A) (A) (A) (A) (A) (A) (A) (A) (A) (A) (A)
                 (A) (A) (A) (A) (A) (A) (A) (A) (A) (A) (A) (A)
                 (A) (A) (A) (A) (A) (A) (A) (A) (A) (A) (A) (A)
                 (A) (A) (A) (A) (A)
 The electronic state is 1-A.
 Alpha  occ. eigenvalues --  -19.14511 -19.11165 -19.10492 -14.36744 -14.36389
 Alpha  occ. eigenvalues --  -10.28640 -10.28063 -10.22801 -10.22442 -10.22401
 Alpha  occ. eigenvalues --  -10.22256 -10.21352 -10.20995 -10.19063  -1.03438
 Alpha  occ. eigenvalues --   -1.02760  -1.02307  -0.93243  -0.92635  -0.76954
 Alpha  occ. eigenvalues --   -0.75241  -0.72329  -0.70921  -0.67949  -0.67030
 Alpha  occ. eigenvalues --   -0.61597  -0.56057  -0.52772  -0.51351  -0.49802
 Alpha  occ. eigenvalues --   -0.48946  -0.47442  -0.46850  -0.46529  -0.45713
 Alpha  occ. eigenvalues --   -0.44622  -0.43558  -0.41977  -0.41043  -0.40590
 Alpha  occ. eigenvalues --   -0.40160  -0.39897  -0.39441  -0.38534  -0.37540
 Alpha  occ. eigenvalues --   -0.37118  -0.35738  -0.35504  -0.34649  -0.31751
 Alpha  occ. eigenvalues --   -0.25854  -0.25097  -0.24810  -0.23755  -0.23087
 Alpha virt. eigenvalues --    0.02048   0.02677   0.08657   0.09597   0.10010
 Alpha virt. eigenvalues --    0.11180   0.13282   0.13676   0.14133   0.14246
 Alpha virt. eigenvalues --    0.14958   0.15504   0.16646   0.16860   0.17147
 Alpha virt. eigenvalues --    0.17345   0.17739   0.17996   0.18960   0.20330
 Alpha virt. eigenvalues --    0.21318   0.21497   0.21906   0.22169   0.22677
 Alpha virt. eigenvalues --    0.23517   0.26487   0.28469   0.28633   0.33855
 Alpha virt. eigenvalues --    0.35020   0.38685   0.41534   0.47580   0.48561
 Alpha virt. eigenvalues --    0.50551   0.50982   0.51484   0.52292   0.53022
 Alpha virt. eigenvalues --    0.54666   0.55049   0.56630   0.56834   0.58188
 Alpha virt. eigenvalues --    0.60156   0.61178   0.62103   0.62995   0.64489
 Alpha virt. eigenvalues --    0.65551   0.66256   0.69038   0.69569   0.72337
 Alpha virt. eigenvalues --    0.72899   0.74234   0.75253   0.75912   0.77331
 Alpha virt. eigenvalues --    0.78964   0.80770   0.81448   0.81815   0.82930
 Alpha virt. eigenvalues --    0.83717   0.84428   0.84784   0.85028   0.85658
 Alpha virt. eigenvalues --    0.87037   0.87095   0.88421   0.89918   0.91397
 Alpha virt. eigenvalues --    0.91524   0.92777   0.93397   0.94685   0.95811
 Alpha virt. eigenvalues --    0.97276   0.97515   0.98940   1.00821   1.02228
 Alpha virt. eigenvalues --    1.03194   1.04008   1.06438   1.09833   1.11396
 Alpha virt. eigenvalues --    1.11609   1.18400   1.18923   1.20624   1.22925
 Alpha virt. eigenvalues --    1.25789   1.28100   1.29110   1.31727   1.33781
 Alpha virt. eigenvalues --    1.34825   1.36013   1.37815   1.38409   1.39997
 Alpha virt. eigenvalues --    1.41558   1.46998   1.47579   1.50718   1.52206
 Alpha virt. eigenvalues --    1.55114   1.59448   1.60904   1.64501   1.65477
 Alpha virt. eigenvalues --    1.67436   1.70098   1.71557   1.72944   1.74391
 Alpha virt. eigenvalues --    1.76852   1.79097   1.80413   1.82214   1.83150
 Alpha virt. eigenvalues --    1.83905   1.85361   1.87531   1.87622   1.88900
 Alpha virt. eigenvalues --    1.88995   1.90094   1.92605   1.93036   1.95332
 Alpha virt. eigenvalues --    1.95602   1.96344   1.98350   2.00076   2.00863
 Alpha virt. eigenvalues --    2.01206   2.02838   2.03284   2.03591   2.03682
 Alpha virt. eigenvalues --    2.04080   2.04421   2.05772   2.06441   2.07065
 Alpha virt. eigenvalues --    2.08935   2.09889   2.10878   2.11765   2.12465
 Alpha virt. eigenvalues --    2.13498   2.15663   2.17994   2.19872   2.21257
 Alpha virt. eigenvalues --    2.24649   2.26239   2.27454   2.29543   2.30320
 Alpha virt. eigenvalues --    2.31915   2.33316   2.34607   2.36579   2.37030
 Alpha virt. eigenvalues --    2.38514   2.44208   2.45943   2.46822   2.50245
 Alpha virt. eigenvalues --    2.51126   2.54127   2.55494   2.57552   2.58084
 Alpha virt. eigenvalues --    2.58402   2.59409   2.61535   2.64270   2.65279
 Alpha virt. eigenvalues --    2.65845   2.66267   2.68402   2.68976   2.70384
 Alpha virt. eigenvalues --    2.71204   2.72626   2.75131   2.75972   2.78902
 Alpha virt. eigenvalues --    2.79614   2.81757   2.84292   2.84975   2.86039
 Alpha virt. eigenvalues --    2.87058   2.88199   2.89407   2.90614   2.91475
 Alpha virt. eigenvalues --    2.98625   3.00284   3.00726   3.05595   3.08465
 Alpha virt. eigenvalues --    3.12783   3.14249   3.15048   3.18144   3.19007
 Alpha virt. eigenvalues --    3.23707   3.26105   3.28355   3.33517   3.37909
 Alpha virt. eigenvalues --    3.38756   3.41351   3.42253   3.43744   3.43907
 Alpha virt. eigenvalues --    3.44311   3.44424   3.46397   3.47744   3.49610
 Alpha virt. eigenvalues --    3.56428   3.95714   4.02728   4.07913   4.09359
 Alpha virt. eigenvalues --    4.25188   4.34901   4.39257   4.41955   4.46096
 Alpha virt. eigenvalues --    4.50605   4.53389   4.62131   4.69432   4.77143
          Condensed to atoms (all electrons):
              1          2          3          4          5          6
     1  C    5.160727   0.345045  -0.079402  -0.122632   0.007686  -0.000149
     2  C    0.345045   4.370657   0.574815   0.263709  -0.030660  -0.001203
     3  O   -0.079402   0.574815   8.087222  -0.104189   0.007597   0.004327
     4  N   -0.122632   0.263709  -0.104189   7.083841   0.275012  -0.052885
     5  C    0.007686  -0.030660   0.007597   0.275012   5.032441   0.323016
     6  C   -0.000149  -0.001203   0.004327  -0.052885   0.323016   4.412300
     7  O   -0.000014   0.000654  -0.000115   0.001753  -0.084861   0.555593
     8  N   -0.000002   0.000565  -0.000970   0.001001  -0.100001   0.281422
     9  C   -0.000048  -0.000170  -0.011356   0.000585  -0.000748  -0.023386
    10  C    0.000000  -0.000031  -0.000018  -0.000097   0.005642  -0.029754
    11  H    0.367748  -0.023306   0.005150   0.004665  -0.000167   0.000005
    12  H    0.361031  -0.020123   0.001753   0.001442  -0.000169   0.000005
    13  H    0.362732  -0.020573   0.001010   0.001868  -0.000220   0.000002
    14  H   -0.000126   0.006021   0.000883  -0.035993   0.369803  -0.034411
    15  H    0.000104  -0.005771   0.005531  -0.038087   0.357072  -0.031870
    16  H    0.000244  -0.000235   0.025920  -0.001017  -0.002174  -0.003632
    17  H    0.000000   0.000005   0.000024   0.000004   0.000108   0.001570
    18  H    0.000000   0.000009   0.000187  -0.000070  -0.001008  -0.001231
    19  H    0.000000   0.000001   0.000007   0.000011  -0.000176   0.000070
    20  H    0.000000  -0.000004   0.000001  -0.000010   0.001023  -0.003694
    21  H    0.000000   0.000000   0.000000  -0.000001  -0.000128   0.002503
    22  C    0.000454  -0.027168   0.002463   0.256473  -0.034062  -0.000223
    23  H    0.007357  -0.009177   0.000109  -0.032469   0.003623  -0.000093
    24  H   -0.000350   0.003149  -0.000085  -0.033424  -0.008163  -0.000329
    25  C   -0.001369  -0.001039  -0.000003  -0.054845  -0.000415   0.001557
    26  H   -0.001098   0.002362  -0.000064   0.003835  -0.000644   0.000175
    27  H    0.000086  -0.000164   0.000001   0.000883   0.000577   0.000086
    28  O   -0.000007   0.000032   0.000000   0.002090  -0.000058   0.000005
    29  C    0.000001  -0.000003   0.000000  -0.000134   0.000000   0.000002
    30  H    0.000000   0.000000   0.000000   0.000001   0.000000   0.000000
    31  H    0.000000   0.000000   0.000000   0.000007   0.000000   0.000000
    32  H   -0.000001   0.000000   0.000000   0.000012   0.000000   0.000000
              7          8          9         10         11         12
     1  C   -0.000014  -0.000002  -0.000048   0.000000   0.367748   0.361031
     2  C    0.000654   0.000565  -0.000170  -0.000031  -0.023306  -0.020123
     3  O   -0.000115  -0.000970  -0.011356  -0.000018   0.005150   0.001753
     4  N    0.001753   0.001001   0.000585  -0.000097   0.004665   0.001442
     5  C   -0.084861  -0.100001  -0.000748   0.005642  -0.000167  -0.000169
     6  C    0.555593   0.281422  -0.023386  -0.029754   0.000005   0.000005
     7  O    8.119201  -0.092041   0.002593  -0.010912   0.000000   0.000002
     8  N   -0.092041   7.007058   0.278988   0.290654   0.000000   0.000001
     9  C    0.002593   0.278988   4.857186  -0.047389   0.000000   0.000000
    10  C   -0.010912   0.290654  -0.047389   4.818774   0.000000   0.000000
    11  H    0.000000   0.000000   0.000000   0.000000   0.546457  -0.022576
    12  H    0.000002   0.000001   0.000000   0.000000  -0.022576   0.572663
    13  H    0.000000   0.000000   0.000001   0.000000  -0.021731  -0.028954
    14  H   -0.000823   0.002000  -0.000086  -0.000189   0.000002  -0.000008
    15  H    0.003627   0.001980   0.002207  -0.000187  -0.000010  -0.000004
    16  H    0.000052  -0.032156   0.373448   0.003169  -0.000004  -0.000003
    17  H   -0.000071  -0.035255   0.385595  -0.005092   0.000000   0.000000
    18  H   -0.000026  -0.045614   0.378292   0.001375   0.000000   0.000000
    19  H    0.000631  -0.042217  -0.003152   0.387541   0.000000   0.000000
    20  H    0.022378  -0.035866   0.004591   0.384616   0.000000   0.000000
    21  H    0.000746  -0.045763  -0.000614   0.384932   0.000000   0.000000
    22  C   -0.000827  -0.000099   0.000003   0.000001   0.000320  -0.000661
    23  H   -0.000006   0.000002   0.000000   0.000000   0.000030  -0.002436
    24  H    0.000045   0.000001   0.000000   0.000000  -0.000009   0.000189
    25  C   -0.004182  -0.000010   0.000000   0.000001   0.000008   0.000287
    26  H    0.000767  -0.000001   0.000000   0.000000  -0.000029   0.003628
    27  H    0.017095   0.000185  -0.000003  -0.000004   0.000000  -0.000087
    28  O    0.000063   0.000000   0.000000   0.000000   0.000000  -0.000065
    29  C    0.000011   0.000000   0.000000   0.000000   0.000000  -0.000005
    30  H    0.000000   0.000000   0.000000   0.000000   0.000000   0.000000
    31  H   -0.000023   0.000000   0.000000   0.000000   0.000000   0.000000
    32  H    0.000001   0.000000   0.000000   0.000000   0.000000   0.000006
             13         14         15         16         17         18
     1  C    0.362732  -0.000126   0.000104   0.000244   0.000000   0.000000
     2  C   -0.020573   0.006021  -0.005771  -0.000235   0.000005   0.000009
     3  O    0.001010   0.000883   0.005531   0.025920   0.000024   0.000187
     4  N    0.001868  -0.035993  -0.038087  -0.001017   0.000004  -0.000070
     5  C   -0.000220   0.369803   0.357072  -0.002174   0.000108  -0.001008
     6  C    0.000002  -0.034411  -0.031870  -0.003632   0.001570  -0.001231
     7  O    0.000000  -0.000823   0.003627   0.000052  -0.000071  -0.000026
     8  N    0.000000   0.002000   0.001980  -0.032156  -0.035255  -0.045614
     9  C    0.000001  -0.000086   0.002207   0.373448   0.385595   0.378292
    10  C    0.000000  -0.000189  -0.000187   0.003169  -0.005092   0.001375
    11  H   -0.021731   0.000002  -0.000010  -0.000004   0.000000   0.000000
    12  H   -0.028954  -0.000008  -0.000004  -0.000003   0.000000   0.000000
    13  H    0.571869  -0.000002   0.000004  -0.000006   0.000000   0.000000
    14  H   -0.000002   0.590723  -0.026108   0.000114  -0.000019   0.000287
    15  H    0.000004  -0.026108   0.605613  -0.000686   0.000172   0.000543
    16  H   -0.000006   0.000114  -0.000686   0.515409  -0.019772  -0.032898
    17  H    0.000000  -0.000019   0.000172  -0.019772   0.594307  -0.040632
    18  H    0.000000   0.000287   0.000543  -0.032898  -0.040632   0.629301
    19  H    0.000000  -0.000005   0.000000   0.000413   0.005439  -0.000681
    20  H    0.000000  -0.000023  -0.000053  -0.000214   0.000087  -0.000137
    21  H    0.000000   0.000025  -0.000019  -0.000126  -0.002041   0.002721
    22  C   -0.002713  -0.003867   0.002023  -0.000017   0.000000   0.000001
    23  H    0.001995   0.000351  -0.000140   0.000000   0.000000   0.000000
    24  H    0.000168   0.005636   0.000756   0.000000   0.000000   0.000000
    25  C    0.000087  -0.001679  -0.000111   0.000000   0.000000   0.000000
    26  H    0.000075   0.000025   0.000002   0.000000   0.000000   0.000000
    27  H   -0.000006   0.000950   0.000055  -0.000001   0.000000   0.000000
    28  O   -0.000007  -0.000001   0.000001   0.000000   0.000000   0.000000
    29  C    0.000000  -0.000001   0.000000   0.000000   0.000000   0.000000
    30  H    0.000000   0.000000   0.000000   0.000000   0.000000   0.000000
    31  H    0.000000   0.000001   0.000000   0.000000   0.000000   0.000000
    32  H    0.000000   0.000000   0.000000   0.000000   0.000000   0.000000
             19         20         21         22         23         24
     1  C    0.000000   0.000000   0.000000   0.000454   0.007357  -0.000350
     2  C    0.000001  -0.000004   0.000000  -0.027168  -0.009177   0.003149
     3  O    0.000007   0.000001   0.000000   0.002463   0.000109  -0.000085
     4  N    0.000011  -0.000010  -0.000001   0.256473  -0.032469  -0.033424
     5  C   -0.000176   0.001023  -0.000128  -0.034062   0.003623  -0.008163
     6  C    0.000070  -0.003694   0.002503  -0.000223  -0.000093  -0.000329
     7  O    0.000631   0.022378   0.000746  -0.000827  -0.000006   0.000045
     8  N   -0.042217  -0.035866  -0.045763  -0.000099   0.000002   0.000001
     9  C   -0.003152   0.004591  -0.000614   0.000003   0.000000   0.000000
    10  C    0.387541   0.384616   0.384932   0.000001   0.000000   0.000000
    11  H    0.000000   0.000000   0.000000   0.000320   0.000030  -0.000009
    12  H    0.000000   0.000000   0.000000  -0.000661  -0.002436   0.000189
    13  H    0.000000   0.000000   0.000000  -0.002713   0.001995   0.000168
    14  H   -0.000005  -0.000023   0.000025  -0.003867   0.000351   0.005636
    15  H    0.000000  -0.000053  -0.000019   0.002023  -0.000140   0.000756
    16  H    0.000413  -0.000214  -0.000126  -0.000017   0.000000   0.000000
    17  H    0.005439   0.000087  -0.002041   0.000000   0.000000   0.000000
    18  H   -0.000681  -0.000137   0.002721   0.000001   0.000000   0.000000
    19  H    0.604569  -0.027505  -0.043848   0.000000   0.000000   0.000000
    20  H   -0.027505   0.521798  -0.023616   0.000001   0.000000   0.000000
    21  H   -0.043848  -0.023616   0.614986   0.000000   0.000000   0.000000
    22  C    0.000000   0.000001   0.000000   4.894274   0.376266   0.373661
    23  H    0.000000   0.000000   0.000000   0.376266   0.605148  -0.032097
    24  H    0.000000   0.000000   0.000000   0.373661  -0.032097   0.616469
    25  C    0.000000  -0.000001   0.000000   0.357735  -0.044626  -0.047184
    26  H    0.000000   0.000000   0.000000  -0.043748  -0.008023   0.006821
    27  H    0.000000  -0.000007   0.000000  -0.031476   0.006267  -0.007882
    28  O    0.000000   0.000000   0.000000  -0.040039   0.006159   0.005941
    29  C    0.000000   0.000000   0.000000   0.004528  -0.000106  -0.000116
    30  H    0.000000   0.000000   0.000000  -0.000283   0.000006   0.000010
    31  H    0.000000   0.000000   0.000000   0.000061   0.000067  -0.000067
    32  H    0.000000   0.000000   0.000000   0.000027  -0.000075   0.000047
             25         26         27         28         29         30
     1  C   -0.001369  -0.001098   0.000086  -0.000007   0.000001   0.000000
     2  C   -0.001039   0.002362  -0.000164   0.000032  -0.000003   0.000000
     3  O   -0.000003  -0.000064   0.000001   0.000000   0.000000   0.000000
     4  N   -0.054845   0.003835   0.000883   0.002090  -0.000134   0.000001
     5  C   -0.000415  -0.000644   0.000577  -0.000058   0.000000   0.000000
     6  C    0.001557   0.000175   0.000086   0.000005   0.000002   0.000000
     7  O   -0.004182   0.000767   0.017095   0.000063   0.000011   0.000000
     8  N   -0.000010  -0.000001   0.000185   0.000000   0.000000   0.000000
     9  C    0.000000   0.000000  -0.000003   0.000000   0.000000   0.000000
    10  C    0.000001   0.000000  -0.000004   0.000000   0.000000   0.000000
    11  H    0.000008  -0.000029   0.000000   0.000000   0.000000   0.000000
    12  H    0.000287   0.003628  -0.000087  -0.000065  -0.000005   0.000000
    13  H    0.000087   0.000075  -0.000006  -0.000007   0.000000   0.000000
    14  H   -0.001679   0.000025   0.000950  -0.000001  -0.000001   0.000000
    15  H   -0.000111   0.000002   0.000055   0.000001   0.000000   0.000000
    16  H    0.000000   0.000000  -0.000001   0.000000   0.000000   0.000000
    17  H    0.000000   0.000000   0.000000   0.000000   0.000000   0.000000
    18  H    0.000000   0.000000   0.000000   0.000000   0.000000   0.000000
    19  H    0.000000   0.000000   0.000000   0.000000   0.000000   0.000000
    20  H   -0.000001   0.000000  -0.000007   0.000000   0.000000   0.000000
    21  H    0.000000   0.000000   0.000000   0.000000   0.000000   0.000000
    22  C    0.357735  -0.043748  -0.031476  -0.040039   0.004528  -0.000283
    23  H   -0.044626  -0.008023   0.006267   0.006159  -0.000106   0.000006
    24  H   -0.047184   0.006821  -0.007882   0.005941  -0.000116   0.000010
    25  C    4.819784   0.361585   0.364798   0.212825  -0.036737   0.005391
    26  H    0.361585   0.683074  -0.054362  -0.039247  -0.005518  -0.000112
    27  H    0.364798  -0.054362   0.606097  -0.033403  -0.005548  -0.000047
    28  O    0.212825  -0.039247  -0.033403   8.227227   0.261020  -0.033433
    29  C   -0.036737  -0.005518  -0.005548   0.261020   4.704366   0.392863
    30  H    0.005391  -0.000112  -0.000047  -0.033433   0.392863   0.595599
    31  H   -0.006602  -0.002636   0.011873  -0.038146   0.371874  -0.035102
    32  H   -0.009312   0.012591  -0.002565  -0.037687   0.370575  -0.036001
             31         32
     1  C    0.000000  -0.000001
     2  C    0.000000   0.000000
     3  O    0.000000   0.000000
     4  N    0.000007   0.000012
     5  C    0.000000   0.000000
     6  C    0.000000   0.000000
     7  O   -0.000023   0.000001
     8  N    0.000000   0.000000
     9  C    0.000000   0.000000
    10  C    0.000000   0.000000
    11  H    0.000000   0.000000
    12  H    0.000000   0.000006
    13  H    0.000000   0.000000
    14  H    0.000001   0.000000
    15  H    0.000000   0.000000
    16  H    0.000000   0.000000
    17  H    0.000000   0.000000
    18  H    0.000000   0.000000
    19  H    0.000000   0.000000
    20  H    0.000000   0.000000
    21  H    0.000000   0.000000
    22  C    0.000061   0.000027
    23  H    0.000067  -0.000075
    24  H   -0.000067   0.000047
    25  C   -0.006602  -0.009312
    26  H   -0.002636   0.012591
    27  H    0.011873  -0.002565
    28  O   -0.038146  -0.037687
    29  C    0.371874   0.370575
    30  H   -0.035102  -0.036001
    31  H    0.654202  -0.052238
    32  H   -0.052238   0.663796
 Mulliken atomic charges:
              1
     1  C   -0.408017
     2  C    0.572603
     3  O   -0.520798
     4  N   -0.421335
     5  C   -0.119943
     6  C    0.600223
     7  O   -0.531308
     8  N   -0.433864
     9  C   -0.196537
    10  C   -0.183032
    11  H    0.143445
    12  H    0.134088
    13  H    0.134401
    14  H    0.126520
    15  H    0.123356
    16  H    0.174169
    17  H    0.115567
    18  H    0.109582
    19  H    0.118902
    20  H    0.156635
    21  H    0.110244
    22  C   -0.083108
    23  H    0.121869
    24  H    0.116812
    25  C    0.084058
    26  H    0.080543
    27  H    0.126602
    28  O   -0.493269
    29  C   -0.057072
    30  H    0.111109
    31  H    0.096730
    32  H    0.090824
 Sum of Mulliken atomic charges =   0.00000
 Mulliken charges with hydrogens summed into heavy atoms:
              1
     1  C    0.003918
     2  C    0.572603
     3  O   -0.520798
     4  N   -0.421335
     5  C    0.129933
     6  C    0.600223
     7  O   -0.531308
     8  N   -0.433864
     9  C    0.202782
    10  C    0.202750
    22  C    0.155573
    25  C    0.291203
    28  O   -0.493269
    29  C    0.241591
 Sum of Mulliken charges with hydrogens summed into heavy atoms =   0.00000
 Electronic spatial extent (au):  <R**2>=           3691.5687
 Charge=              0.0000 electrons
 Dipole moment (field-independent basis, Debye):
    X=             -0.3756    Y=             -0.0603    Z=              1.0454  Tot=              1.1124
 Quadrupole moment (field-independent basis, Debye-Ang):
   XX=            -75.4013   YY=            -87.0269   ZZ=            -82.4841
   XY=              4.6978   XZ=             -4.5075   YZ=              0.7656
 Traceless Quadrupole moment (field-independent basis, Debye-Ang):
   XX=              6.2361   YY=             -5.3895   ZZ=             -0.8466
   XY=              4.6978   XZ=             -4.5075   YZ=              0.7656
 Octapole moment (field-independent basis, Debye-Ang**2):
  XXX=            -33.8927  YYY=             -1.9768  ZZZ=              0.9842  XYY=             21.9494
  XXY=            -29.2365  XXZ=            -13.9026  XZZ=             -0.8628  YZZ=              0.0309
  YYZ=             -0.1941  XYZ=             -2.8810
 Hexadecapole moment (field-independent basis, Debye-Ang**3):
 XXXX=          -2958.7093 YYYY=          -1271.6146 ZZZZ=           -323.2218 XXXY=            -54.5998
 XXXZ=            -29.8382 YYYX=             25.6699 YYYZ=             -0.8591 ZZZX=              6.6361
 ZZZY=             -5.1378 XXYY=           -693.9216 XXZZ=           -577.5849 YYZZ=           -265.7753
 XXYZ=             28.9398 YYXZ=             -2.4859 ZZXY=              1.7867
 N-N= 9.749167863936D+02 E-N=-3.556010794942D+03  KE= 6.826142767689D+02
 Calling FoFJK, ICntrl=      2127 FMM=F ISym2X=0 I1Cent= 0 IOpClX= 0 NMat=1 NMatS=1 NMatT=0.
 ***** Axes restored to original set *****
 -------------------------------------------------------------------
 Center     Atomic                   Forces (Hartrees/Bohr)
 Number     Number              X              Y              Z
 -------------------------------------------------------------------
      1        6           0.000000992    0.000000926   -0.000007032
      2        6           0.000000677    0.000008549    0.000007559
      3        8           0.000007439   -0.000002248   -0.000009555
      4        7           0.000003861   -0.000002312   -0.000010416
      5        6          -0.000002867   -0.000003250   -0.000003404
      6        6           0.000003000    0.000015101   -0.000019908
      7        8           0.000001403   -0.000007596    0.000010114
      8        7          -0.000003221   -0.000000947    0.000012908
      9        6           0.000001039    0.000001475   -0.000001681
     10        6          -0.000000965   -0.000002401    0.000002901
     11        1           0.000003073   -0.000001383   -0.000008300
     12        1           0.000000124   -0.000003457   -0.000002318
     13        1           0.000001285   -0.000001217   -0.000007717
     14        1          -0.000001107    0.000004226   -0.000000624
     15        1          -0.000003423    0.000004078    0.000000156
     16        1          -0.000000368    0.000004516   -0.000001342
     17        1          -0.000000224    0.000004480   -0.000005307
     18        1          -0.000001134    0.000002973   -0.000004690
     19        1           0.000001418   -0.000003234   -0.000003002
     20        1          -0.000002509   -0.000000029    0.000002031
     21        1          -0.000001890    0.000004569    0.000000999
     22        6          -0.000007123   -0.000006598    0.000007567
     23        1          -0.000000588   -0.000000037   -0.000002374
     24        1           0.000002228    0.000002368    0.000006727
     25        6           0.000001372    0.000003468    0.000004385
     26        1           0.000001116   -0.000001432   -0.000003628
     27        1          -0.000004155   -0.000006788    0.000004912
     28        8           0.000003174    0.000002083    0.000006470
     29        6          -0.000003751    0.000000505    0.000007467
     30        1           0.000003569   -0.000003162    0.000009631
     31        1          -0.000002953   -0.000008932    0.000008257
     32        1           0.000000507   -0.000004296   -0.000000788
 -------------------------------------------------------------------
 Cartesian Forces:  Max     0.000019908 RMS     0.000005228

 GradGradGradGradGradGradGradGradGradGradGradGradGradGradGradGradGradGrad
 Berny optimization.
 Internal  Forces:  Max     0.000013606 RMS     0.000003435
 Search for a local minimum.
 Step number   1 out of a maximum of  155 on scan point     1 out of    37
 All quantities printed in internal units (Hartrees-Bohrs-Radians)
 Mixed Optimization -- En-DIIS/RFO-DIIS
 Second derivative matrix not updated -- first step.
 ITU=  0
     Eigenvalues ---    0.00358   0.00495   0.00730   0.00865   0.00876
     Eigenvalues ---    0.00919   0.01091   0.01122   0.01247   0.01464
     Eigenvalues ---    0.01530   0.02057   0.02160   0.02794   0.03986
     Eigenvalues ---    0.05431   0.05450   0.05912   0.06425   0.06958
     Eigenvalues ---    0.07139   0.07462   0.07467   0.07631   0.07707
     Eigenvalues ---    0.09704   0.09888   0.10039   0.10500   0.10940
     Eigenvalues ---    0.10958   0.13058   0.13527   0.16000   0.16000
     Eigenvalues ---    0.16000   0.16000   0.16000   0.16000   0.16000
     Eigenvalues ---    0.16000   0.16000   0.16000   0.16000   0.16000
     Eigenvalues ---    0.21897   0.21975   0.22041   0.24865   0.24924
     Eigenvalues ---    0.24941   0.24997   0.24997   0.24998   0.25000
     Eigenvalues ---    0.25000   0.25000   0.28373   0.29347   0.30319
     Eigenvalues ---    0.33330   0.33523   0.33599   0.33894   0.33996
     Eigenvalues ---    0.33997   0.34131   0.34205   0.34220   0.34405
     Eigenvalues ---    0.34407   0.34439   0.34491   0.34635   0.34823
     Eigenvalues ---    0.34886   0.34898   0.35010   0.36655   0.36667
     Eigenvalues ---    0.36756   0.37164   0.42884   0.43646   0.50524
     Eigenvalues ---    0.52027   0.90374   0.905211000.000001000.00000
     Eigenvalues --- 1000.000001000.000001000.000001000.000001000.00000
     Eigenvalues --- 1000.000001000.000001000.000001000.000001000.00000
     Eigenvalues --- 1000.000001000.000001000.000001000.000001000.00000
     Eigenvalues --- 1000.000001000.000001000.000001000.000001000.00000
     Eigenvalues --- 1000.000001000.000001000.000001000.000001000.00000
     Eigenvalues --- 1000.000001000.000001000.000001000.000001000.00000
     Eigenvalues --- 1000.000001000.000001000.000001000.000001000.00000
     Eigenvalues --- 1000.000001000.000001000.000001000.000001000.00000
     Eigenvalues --- 1000.000001000.000001000.000001000.000001000.00000
     Eigenvalues --- 1000.000001000.000001000.000001000.000001000.00000
     Eigenvalues --- 1000.000001000.000001000.000001000.000001000.00000
 RFO step:  Lambda=-2.86733331D-08 EMin= 3.58089248D-03
 Linear search not attempted -- first point.
 Iteration  1 RMS(Cart)=  0.00034340 RMS(Int)=  0.00000003
 Iteration  2 RMS(Cart)=  0.00000006 RMS(Int)=  0.00000001
 Iteration  1 RMS(Cart)=  0.00000000 RMS(Int)=  0.00000000
 Variable       Old X    -DE/DX   Delta X   Delta X   Delta X     New X
                                 (Linear)    (Quad)   (Total)
    R1        2.87331   0.00000   0.00000   0.00001   0.00001   2.87332
    R2        2.05860   0.00000   0.00000   0.00001   0.00001   2.05860
    R3        2.06651   0.00000   0.00000  -0.00001  -0.00001   2.06651
    R4        2.06985   0.00000   0.00000  -0.00001  -0.00001   2.06985
    R5        2.32694  -0.00001   0.00000  -0.00001  -0.00001   2.32693
    R6        2.59340   0.00001   0.00000   0.00002   0.00002   2.59342
    R7        2.76352   0.00000   0.00000   0.00001   0.00001   2.76353
    R8        2.76216   0.00000   0.00000   0.00000   0.00000   2.76217
    R9        2.91330   0.00000   0.00000  -0.00001  -0.00001   2.91329
   R10        2.06649   0.00000   0.00000   0.00000   0.00000   2.06649
   R11        2.05840   0.00000   0.00000   0.00001   0.00001   2.05841
   R12        2.32761   0.00000   0.00000   0.00000   0.00000   2.32762
   R13        2.57873   0.00000   0.00000   0.00001   0.00001   2.57874
   R14        2.76370   0.00000   0.00000   0.00000   0.00000   2.76370
   R15        2.75599   0.00000   0.00000   0.00001   0.00001   2.75600
   R16        2.05963   0.00000   0.00000   0.00000   0.00000   2.05963
   R17        2.06596   0.00000   0.00000   0.00000   0.00000   2.06596
   R18        2.07510   0.00000   0.00000   0.00000   0.00000   2.07510
   R19        2.07336   0.00000   0.00000   0.00000   0.00000   2.07336
   R20        2.05658   0.00000   0.00000   0.00000   0.00000   2.05658
   R21        2.07110   0.00000   0.00000   0.00000   0.00000   2.07110
   R22        2.06272   0.00000   0.00000   0.00000   0.00000   2.06272
   R23        2.06961   0.00001   0.00000   0.00002   0.00002   2.06963
   R24        2.89285   0.00000   0.00000   0.00000   0.00000   2.89286
   R25        2.08475   0.00001   0.00000   0.00002   0.00002   2.08477
   R26        2.07336   0.00001   0.00000   0.00002   0.00002   2.07339
   R27        2.67814   0.00000   0.00000   0.00001   0.00001   2.67814
   R28        2.66880   0.00000   0.00000   0.00001   0.00001   2.66881
   R29        2.06509   0.00001   0.00000   0.00001   0.00001   2.06511
   R30        2.08012   0.00001   0.00000   0.00002   0.00002   2.08014
   R31        2.08143   0.00001   0.00000   0.00002   0.00002   2.08145
    A1        1.87227   0.00000   0.00000   0.00001   0.00001   1.87228
    A2        1.96080   0.00000   0.00000  -0.00002  -0.00002   1.96079
    A3        1.94190   0.00000   0.00000   0.00002   0.00002   1.94192
    A4        1.90883   0.00000   0.00000  -0.00001  -0.00001   1.90882
    A5        1.89832   0.00000   0.00000   0.00000   0.00000   1.89831
    A6        1.88091   0.00000   0.00000   0.00000   0.00000   1.88092
    A7        2.10818  -0.00001   0.00000  -0.00004  -0.00004   2.10814
    A8        2.06440   0.00001   0.00000   0.00006   0.00006   2.06446
    A9        2.11047   0.00000   0.00000  -0.00001  -0.00001   2.11046
   A10        2.02830   0.00000   0.00000   0.00000   0.00000   2.02830
   A11        2.16908   0.00001   0.00000   0.00003   0.00003   2.16911
   A12        2.08572  -0.00001   0.00000  -0.00003  -0.00003   2.08569
   A13        1.97218   0.00001   0.00000   0.00006   0.00006   1.97224
   A14        1.87998   0.00000   0.00000  -0.00002  -0.00002   1.87997
   A15        1.90180   0.00000   0.00000   0.00000   0.00000   1.90180
   A16        1.84166   0.00000   0.00000  -0.00001  -0.00001   1.84165
   A17        1.97461  -0.00001   0.00000  -0.00002  -0.00002   1.97459
   A18        1.88875   0.00000   0.00000  -0.00002  -0.00002   1.88873
   A19        2.07440   0.00000   0.00000   0.00000   0.00000   2.07441
   A20        2.06667  -0.00001   0.00000  -0.00005  -0.00005   2.06662
   A21        2.13985   0.00001   0.00000   0.00002   0.00002   2.13987
   A22        2.17797   0.00000   0.00000  -0.00001  -0.00001   2.17796
   A23        2.06746   0.00000   0.00000   0.00001   0.00001   2.06748
   A24        2.03346   0.00000   0.00000   0.00000   0.00000   2.03346
   A25        1.92597   0.00000   0.00000   0.00003   0.00003   1.92600
   A26        1.88834   0.00000   0.00000   0.00001   0.00001   1.88836
   A27        1.95871   0.00000   0.00000  -0.00003  -0.00003   1.95869
   A28        1.87717   0.00000   0.00000   0.00000   0.00000   1.87717
   A29        1.93019   0.00000   0.00000  -0.00001  -0.00001   1.93018
   A30        1.88055   0.00000   0.00000   0.00000   0.00000   1.88055
   A31        1.93447   0.00000   0.00000   0.00002   0.00002   1.93449
   A32        1.89663   0.00000   0.00000   0.00001   0.00001   1.89665
   A33        1.92008   0.00000   0.00000  -0.00002  -0.00002   1.92007
   A34        1.90248   0.00000   0.00000  -0.00002  -0.00002   1.90246
   A35        1.89274   0.00000   0.00000   0.00000   0.00000   1.89273
   A36        1.91740   0.00000   0.00000   0.00001   0.00001   1.91741
   A37        1.91263   0.00000   0.00000  -0.00004  -0.00004   1.91258
   A38        1.89512   0.00000   0.00000   0.00005   0.00005   1.89517
   A39        1.99657   0.00000   0.00000   0.00002   0.00002   1.99659
   A40        1.85793   0.00000   0.00000  -0.00001  -0.00001   1.85791
   A41        1.89625   0.00000   0.00000  -0.00004  -0.00004   1.89621
   A42        1.90035   0.00000   0.00000   0.00003   0.00003   1.90037
   A43        1.92099   0.00000   0.00000   0.00000   0.00000   1.92099
   A44        1.92932   0.00000   0.00000   0.00001   0.00001   1.92933
   A45        1.85494   0.00000   0.00000  -0.00001  -0.00001   1.85493
   A46        1.86464   0.00000   0.00000   0.00001   0.00001   1.86464
   A47        1.93830   0.00000   0.00000  -0.00001  -0.00001   1.93829
   A48        1.95658   0.00000   0.00000   0.00001   0.00001   1.95659
   A49        1.96690   0.00000   0.00000   0.00000   0.00000   1.96690
   A50        1.87327   0.00000   0.00000  -0.00001  -0.00001   1.87326
   A51        1.95147   0.00000   0.00000   0.00001   0.00001   1.95149
   A52        1.95129   0.00000   0.00000   0.00001   0.00001   1.95130
   A53        1.90157   0.00000   0.00000  -0.00001  -0.00001   1.90156
   A54        1.89884   0.00000   0.00000   0.00000   0.00000   1.89884
   A55        1.88637   0.00000   0.00000   0.00000   0.00000   1.88637
    D1       -0.11294   0.00000   0.00000   0.00016   0.00016  -0.11278
    D2        3.04595   0.00000   0.00000  -0.00023  -0.00023   3.04572
    D3       -2.21118   0.00000   0.00000   0.00018   0.00018  -2.21099
    D4        0.94772   0.00000   0.00000  -0.00021  -0.00021   0.94751
    D5        1.96136   0.00000   0.00000   0.00017   0.00017   1.96154
    D6       -1.16293   0.00000   0.00000  -0.00022  -0.00022  -1.16314
    D7        3.13124   0.00000   0.00000   0.00010   0.00010   3.13134
    D8       -0.02490   0.00000   0.00000   0.00032   0.00032  -0.02458
    D9        0.00697   0.00000   0.00000  -0.00029  -0.00029   0.00669
   D10        3.13402   0.00000   0.00000  -0.00008  -0.00008   3.13394
   D11        1.37305   0.00000   0.00000   0.00000   0.00000   1.37305
   D12       -2.88295   0.00000   0.00000   0.00002   0.00002  -2.88294
   D13       -0.83777   0.00000   0.00000  -0.00001  -0.00001  -0.83778
   D14       -1.75473   0.00000   0.00000  -0.00020  -0.00020  -1.75493
   D15        0.27245   0.00000   0.00000  -0.00019  -0.00019   0.27226
   D16        2.31764   0.00000   0.00000  -0.00021  -0.00021   2.31742
   D17        0.47398   0.00000   0.00000  -0.00008  -0.00008   0.47390
   D18        2.49675   0.00000   0.00000  -0.00009  -0.00009   2.49666
   D19       -1.66015   0.00000   0.00000  -0.00001  -0.00001  -1.66016
   D20       -2.68261   0.00000   0.00000   0.00014   0.00014  -2.68247
   D21       -0.65983   0.00000   0.00000   0.00012   0.00012  -0.65971
   D22        1.46645   0.00000   0.00000   0.00021   0.00021   1.46666
   D23        0.98224   0.00000   0.00000   0.00057   0.00057   0.98281
   D24       -2.22955  -0.00001   0.00000   0.00000   0.00000  -2.22955
   D25       -1.06759   0.00000   0.00000   0.00056   0.00056  -1.06703
   D26        2.00380   0.00000   0.00000  -0.00001  -0.00001   2.00379
   D27       -3.12936   0.00001   0.00000   0.00060   0.00060  -3.12876
   D28       -0.05797   0.00000   0.00000   0.00003   0.00003  -0.05794
   D29        0.23918   0.00000   0.00000   0.00019   0.00019   0.23937
   D30       -3.00559   0.00000   0.00000   0.00023   0.00023  -3.00536
   D31       -2.97541  -0.00001   0.00000  -0.00040  -0.00040  -2.97581
   D32        0.06301  -0.00001   0.00000  -0.00036  -0.00036   0.06265
   D33        0.58074   0.00000   0.00000  -0.00022  -0.00022   0.58052
   D34        2.63012   0.00000   0.00000  -0.00020  -0.00020   2.62991
   D35       -1.58056   0.00000   0.00000  -0.00021  -0.00021  -1.58078
   D36       -2.45949   0.00000   0.00000  -0.00026  -0.00026  -2.45975
   D37       -0.41012   0.00000   0.00000  -0.00024  -0.00024  -0.41036
   D38        1.66239   0.00000   0.00000  -0.00025  -0.00025   1.66213
   D39       -1.92152   0.00000   0.00000   0.00014   0.00014  -1.92139
   D40        0.16869   0.00000   0.00000   0.00013   0.00013   0.16883
   D41        2.26850   0.00000   0.00000   0.00014   0.00014   2.26864
   D42        1.12541   0.00000   0.00000   0.00017   0.00017   1.12558
   D43       -3.06756   0.00000   0.00000   0.00017   0.00017  -3.06739
   D44       -0.96775   0.00000   0.00000   0.00018   0.00018  -0.96757
   D45        0.98517   0.00000   0.00000  -0.00012  -0.00012   0.98505
   D46       -1.07056   0.00000   0.00000  -0.00013  -0.00013  -1.07069
   D47        3.08553   0.00000   0.00000  -0.00014  -0.00014   3.08539
   D48       -1.15786   0.00000   0.00000  -0.00004  -0.00004  -1.15790
   D49        3.06960   0.00000   0.00000  -0.00006  -0.00006   3.06954
   D50        0.94250   0.00000   0.00000  -0.00007  -0.00007   0.94243
   D51        3.10859   0.00000   0.00000  -0.00002  -0.00002   3.10857
   D52        1.05287   0.00000   0.00000  -0.00004  -0.00004   1.05283
   D53       -1.07424   0.00000   0.00000  -0.00004  -0.00004  -1.07428
   D54        3.09425   0.00000   0.00000   0.00002   0.00002   3.09428
   D55       -1.09982   0.00000   0.00000   0.00001   0.00001  -1.09980
   D56        0.98460   0.00000   0.00000   0.00002   0.00002   0.98461
   D57       -3.13236   0.00000   0.00000   0.00001   0.00001  -3.13235
   D58       -1.04794   0.00000   0.00000   0.00000   0.00000  -1.04794
   D59        1.06985   0.00000   0.00000   0.00001   0.00001   1.06986
         Item               Value     Threshold  Converged?
 Maximum Force            0.000014     0.000450     YES
 RMS     Force            0.000003     0.000300     YES
 Maximum Displacement     0.001169     0.001800     YES
 RMS     Displacement     0.000343     0.001200     YES
 Predicted change in Energy=-1.433622D-08
 Optimization completed.
    -- Stationary point found.
                           ----------------------------
                           !   Optimized Parameters   !
                           ! (Angstroms and Degrees)  !
 --------------------------                            --------------------------
 ! Name  Definition              Value          Derivative Info.                !
 --------------------------------------------------------------------------------
 ! R1    R(1,2)                  1.5205         -DE/DX =    0.0                 !
 ! R2    R(1,11)                 1.0894         -DE/DX =    0.0                 !
 ! R3    R(1,12)                 1.0936         -DE/DX =    0.0                 !
 ! R4    R(1,13)                 1.0953         -DE/DX =    0.0                 !
 ! R5    R(2,3)                  1.2314         -DE/DX =    0.0                 !
 ! R6    R(2,4)                  1.3724         -DE/DX =    0.0                 !
 ! R7    R(4,5)                  1.4624         -DE/DX =    0.0                 !
 ! R8    R(4,22)                 1.4617         -DE/DX =    0.0                 !
 ! R9    R(5,6)                  1.5417         -DE/DX =    0.0                 !
 ! R10   R(5,14)                 1.0935         -DE/DX =    0.0                 !
 ! R11   R(5,15)                 1.0893         -DE/DX =    0.0                 !
 ! R12   R(6,7)                  1.2317         -DE/DX =    0.0                 !
 ! R13   R(6,8)                  1.3646         -DE/DX =    0.0                 !
 ! R14   R(8,9)                  1.4625         -DE/DX =    0.0                 !
 ! R15   R(8,10)                 1.4584         -DE/DX =    0.0                 !
 ! R16   R(9,16)                 1.0899         -DE/DX =    0.0                 !
 ! R17   R(9,17)                 1.0933         -DE/DX =    0.0                 !
 ! R18   R(9,18)                 1.0981         -DE/DX =    0.0                 !
 ! R19   R(10,19)                1.0972         -DE/DX =    0.0                 !
 ! R20   R(10,20)                1.0883         -DE/DX =    0.0                 !
 ! R21   R(10,21)                1.096          -DE/DX =    0.0                 !
 ! R22   R(22,23)                1.0915         -DE/DX =    0.0                 !
 ! R23   R(22,24)                1.0952         -DE/DX =    0.0                 !
 ! R24   R(22,25)                1.5308         -DE/DX =    0.0                 !
 ! R25   R(25,26)                1.1032         -DE/DX =    0.0                 !
 ! R26   R(25,27)                1.0972         -DE/DX =    0.0                 !
 ! R27   R(25,28)                1.4172         -DE/DX =    0.0                 !
 ! R28   R(28,29)                1.4123         -DE/DX =    0.0                 !
 ! R29   R(29,30)                1.0928         -DE/DX =    0.0                 !
 ! R30   R(29,31)                1.1008         -DE/DX =    0.0                 !
 ! R31   R(29,32)                1.1014         -DE/DX =    0.0                 !
 ! A1    A(2,1,11)             107.2734         -DE/DX =    0.0                 !
 ! A2    A(2,1,12)             112.3457         -DE/DX =    0.0                 !
 ! A3    A(2,1,13)             111.2628         -DE/DX =    0.0                 !
 ! A4    A(11,1,12)            109.3681         -DE/DX =    0.0                 !
 ! A5    A(11,1,13)            108.7656         -DE/DX =    0.0                 !
 ! A6    A(12,1,13)            107.7684         -DE/DX =    0.0                 !
 ! A7    A(1,2,3)              120.7897         -DE/DX =    0.0                 !
 ! A8    A(1,2,4)              118.2816         -DE/DX =    0.0                 !
 ! A9    A(3,2,4)              120.9212         -DE/DX =    0.0                 !
 ! A10   A(2,4,5)              116.2129         -DE/DX =    0.0                 !
 ! A11   A(2,4,22)             124.2792         -DE/DX =    0.0                 !
 ! A12   A(5,4,22)             119.5027         -DE/DX =    0.0                 !
 ! A13   A(4,5,6)              112.9978         -DE/DX =    0.0                 !
 ! A14   A(4,5,14)             107.7151         -DE/DX =    0.0                 !
 ! A15   A(4,5,15)             108.9651         -DE/DX =    0.0                 !
 ! A16   A(6,5,14)             105.5191         -DE/DX =    0.0                 !
[...]
   D17        0.49899  -0.00005  -0.00374  -0.00330  -0.00694   0.49205
   D18        2.52133  -0.00018  -0.00390  -0.00208  -0.00588   2.51545
   D19       -1.64459  -0.00011  -0.00236  -0.00422  -0.00648  -1.65107
   D20       -2.81904  -0.00003   0.00977   0.00485   0.01453  -2.80451
   D21       -0.79671  -0.00016   0.00961   0.00608   0.01559  -0.78112
   D22        1.32056  -0.00009   0.01115   0.00394   0.01499   1.33555
   D23        1.75747   0.00024  -0.00848   0.00920   0.00066   1.75813
   D24       -1.18235  -0.00426   0.00000   0.00000   0.00000  -1.18236
   D25       -0.33701   0.00296  -0.03049   0.01401  -0.01643  -0.35345
   D26        3.00635  -0.00154  -0.02201   0.00481  -0.01709   2.98925
   D27       -2.38005   0.00178  -0.03564   0.01750  -0.01792  -2.39797
   D28        0.96331  -0.00272  -0.02715   0.00830  -0.01858   0.94473
   D29       -0.79217   0.00668   0.04228   0.02695   0.06913  -0.72304
   D30        2.89965   0.00475   0.02365   0.01795   0.04149   2.94114
   D31        2.55952   0.00205   0.05000   0.01884   0.06896   2.62847
   D32       -0.03185   0.00013   0.03137   0.00985   0.04131   0.00947
   D33        0.55792   0.00006   0.00338   0.02803   0.03143   0.58935
   D34        2.62689  -0.00094  -0.00192   0.02462   0.02273   2.64962
   D35       -1.57740  -0.00039  -0.00232   0.02058   0.01827  -1.55913
   D36       -3.12270   0.00138   0.02114   0.03731   0.05843  -3.06426
   D37       -1.05372   0.00039   0.01584   0.03390   0.04973  -1.00398
   D38        1.02517   0.00093   0.01543   0.02986   0.04527   1.07044
   D39       -2.76647  -0.00044   0.01045   0.01667   0.02713  -2.73934
   D40       -0.66803  -0.00047   0.01075   0.01679   0.02755  -0.64049
   D41        1.42373  -0.00040   0.01085   0.01882   0.02967   1.45341
   D42        0.86933   0.00027  -0.00669   0.00803   0.00134   0.87067
   D43        2.96777   0.00024  -0.00640   0.00815   0.00175   2.96953
   D44       -1.22365   0.00031  -0.00629   0.01018   0.00388  -1.21977
   D45        0.97693  -0.00009  -0.00115   0.00085  -0.00030   0.97663
   D46       -1.09218  -0.00009  -0.00034   0.00055   0.00021  -1.09197
   D47        3.07892  -0.00016  -0.00217   0.00008  -0.00209   3.07683
   D48       -1.17586  -0.00004   0.00046  -0.00080  -0.00034  -1.17620
   D49        3.03821  -0.00004   0.00128  -0.00110   0.00018   3.03838
   D50        0.92613  -0.00011  -0.00056  -0.00157  -0.00213   0.92400
   D51        3.08989   0.00011   0.00058  -0.00089  -0.00031   3.08958
   D52        1.02077   0.00011   0.00140  -0.00120   0.00020   1.02098
   D53       -1.09131   0.00004  -0.00044  -0.00166  -0.00210  -1.09340
   D54        3.06992   0.00007   0.00118  -0.00277  -0.00159   3.06832
   D55       -1.12034   0.00002  -0.00006  -0.00364  -0.00370  -1.12404
   D56        0.96981  -0.00008  -0.00011  -0.00372  -0.00383   0.96599
   D57       -3.13184   0.00001  -0.00019  -0.00094  -0.00113  -3.13297
   D58       -1.04832   0.00005   0.00003  -0.00109  -0.00107  -1.04938
   D59        1.07210  -0.00006  -0.00037  -0.00096  -0.00133   1.07077
         Item               Value     Threshold  Converged?
 Maximum Force            0.016036     0.000450     NO 
 RMS     Force            0.002668     0.000300     NO 
 Maximum Displacement     0.214779     0.001800     NO 
 RMS     Displacement     0.050551     0.001200     NO 
 Predicted change in Energy=-3.162755D-04
 GradGradGradGradGradGradGradGradGradGradGradGradGradGradGradGradGradGrad

                          Input orientation:                          
 ---------------------------------------------------------------------
 Center     Atomic      Atomic             Coordinates (Angstroms)
 Number     Number       Type             X           Y           Z
 ---------------------------------------------------------------------
      1          6           0        0.788464    2.767522   -0.870233
      2          6           0       -0.211777    2.045572    0.024545
      3          8           0       -1.384857    2.406522    0.043660
      4          7           0        0.260193    1.048394    0.845330
      5          6           0       -0.645695    0.183313    1.619237
      6          6           0       -1.337684   -0.970716    0.843921
      7          8           0       -0.839743   -2.091894    0.986105
      8          7           0       -2.282335   -0.746973   -0.126266
      9          6           0       -3.343725    0.256626   -0.021025
     10          6           0       -2.648655   -1.904209   -0.941124
     11          1           0        0.215322    3.446654   -1.500333
     12          1           0        1.364233    2.084925   -1.501166
     13          1           0        1.497661    3.356356   -0.279132
     14          1           0       -0.081335   -0.303873    2.411345
     15          1           0       -1.391888    0.843804    2.075800
     16          1           0       -3.000002    1.127409    0.525662
     17          1           0       -3.622687    0.591443   -1.023884
     18          1           0       -4.234349   -0.176570    0.457103
     19          1           0       -3.055619   -1.542455   -1.889447
     20          1           0       -1.768140   -2.518548   -1.120653
     21          1           0       -3.406515   -2.529194   -0.449697
     22          6           0        1.672292    0.644789    0.852307
     23          1           0        2.300345    1.488105    0.564660
     24          1           0        1.949836    0.386368    1.879231
     25          6           0        1.995143   -0.545008   -0.055868
     26          1           0        1.675031   -0.330371   -1.090596
     27          1           0        1.452616   -1.440625    0.278813
     28          8           0        3.396035   -0.732946    0.011159
     29          6           0        3.832342   -1.866731   -0.710864
     30          1           0        4.916410   -1.929165   -0.590643
     31          1           0        3.375959   -2.793167   -0.330829
     32          1           0        3.598625   -1.782781   -1.783947
 ---------------------------------------------------------------------
                    Distance matrix (angstroms):
                    1          2          3          4          5
     1  C    0.000000
     2  C    1.523917   0.000000
     3  O    2.385130   1.227504   0.000000
     4  N    2.485483   1.375067   2.278898   0.000000
     5  C    3.864248   2.489847   2.823378   1.472390   0.000000
     6  C    4.629607   3.322204   3.471078   2.574883   1.552981
     7  O    5.450778   4.293899   4.628294   3.330329   2.369616
     8  N    4.725989   3.479693   3.283120   3.260643   2.567257
     9  C    4.909251   3.607146   2.909193   3.790210   3.158354
    10  C    5.800335   4.740428   4.598846   4.513389   3.863295
    11  H    1.089375   2.114402   2.454865   3.354966   4.595918
    12  H    1.093401   2.193890   3.169765   2.792730   4.170474
    13  H    1.095028   2.175444   3.052096   2.849988   4.273872
    14  H    4.578075   3.351675   3.827708   2.097063   1.087790
    15  H    4.139291   2.654158   2.563538   2.070093   1.096130
    16  H    4.357863   2.977975   2.115928   3.276783   2.762243
    17  H    4.921095   3.853310   3.072791   4.333535   4.001892
    18  H    5.971444   4.615853   3.868191   4.674630   3.789262
    19  H    5.864442   4.962332   4.703485   5.018577   4.593134
    20  H    5.877199   4.956302   5.075318   4.549978   4.008358
    21  H    6.769779   5.599977   5.356473   5.284031   4.388658
    22  C    2.873028   2.489398   3.619913   1.468662   2.484795
    23  H    2.445733   2.629306   3.833490   2.105787   3.390246
    24  H    3.818145   3.296269   4.309352   2.088569   2.616411
    25  C    3.618303   3.404125   4.488412   2.522130   3.210990
    26  H    3.229783   3.232443   4.259112   2.765966   3.604558
    27  H    4.412472   3.871489   4.786136   2.817451   2.972679
    28  O    4.453038   4.553751   5.719637   3.701691   4.445337
    29  C    5.546791   5.674667   6.785954   4.866204   5.448382
    30  H    6.259152   6.517308   7.675057   5.710362   6.346901
    31  H    6.156894   6.034198   7.059914   5.084185   5.369906
    32  H    5.425600   5.696148   6.762064   5.106249   5.784587
                    6          7          8          9         10
     6  C    0.000000
     7  O    1.234990   0.000000
     8  N    1.372476   2.264344   0.000000
     9  C    2.505733   3.577678   1.464526   0.000000
    10  C    2.403422   2.649830   1.461977   2.449267   0.000000
    11  H    5.236460   6.162066   5.070785   5.003144   6.094818
    12  H    4.704969   5.337588   4.817412   5.262924   5.685957
    13  H    5.293769   6.061990   5.581134   5.754474   6.730804
    14  H    2.116580   2.409048   3.388246   4.107770   4.515668
    15  H    2.193843   3.179721   2.858769   2.924230   4.269996
    16  H    2.695685   3.904182   2.110299   1.084101   3.386090
    17  H    3.339203   4.357193   2.096096   1.093457   2.680273
    18  H    3.028360   3.933402   2.115664   1.099761   2.730237
    19  H    3.278641   3.671619   2.083163   2.609732   1.093527
    20  H    2.537839   2.341449   2.095633   3.375387   1.088555
    21  H    2.895231   2.973395   2.131830   2.819308   1.098390
    22  C    3.416121   3.717211   4.305076   5.106251   5.327698
    23  H    4.399891   4.780603   5.145281   5.806470   6.186096
    24  H    3.704231   3.836823   4.818480   5.625797   5.860654
    25  C    3.478302   3.393397   4.282822   5.398828   4.918940
    26  H    3.637149   3.706716   4.094415   5.164926   4.603647
    27  H    2.885470   2.485825   3.820354   5.096612   4.303904
    28  O    4.812289   4.554018   5.680050   6.812096   6.230328
    29  C    5.472602   4.975820   6.243789   7.515349   6.485195
    30  H    6.487704   5.970421   7.309936   8.563410   7.573221
    31  H    5.188429   4.471940   6.020386   7.385890   6.120350
    32  H    5.650866   5.240978   6.197298   7.447369   6.305046
                   11         12         13         14         15
    11  H    0.000000
    12  H    1.781657   0.000000
    13  H    1.773099   1.768533   0.000000
    14  H    5.427309   4.806638   4.809280   0.000000
    15  H    4.706025   4.683083   4.495344   1.774065   0.000000
    16  H    4.452175   4.906263   5.083786   3.758056   2.251530
    17  H    4.807239   5.227586   5.866632   5.014336   3.827295
    18  H    6.062910   6.347700   6.773444   4.591600   3.426503
    19  H    5.978434   5.730946   6.879232   5.373757   4.917867
    20  H    6.297770   5.581085   6.774077   4.497233   4.654491
    21  H    7.066279   6.719801   7.662881   4.918785   4.670544
    22  C    3.938035   2.776279   2.943340   2.530962   3.305411
    23  H    3.528092   2.345237   2.201511   3.506256   4.041194
    24  H    4.878047   3.828199   3.699165   2.210256   3.378610
    25  C    4.603000   3.066510   3.939286   3.233736   4.236129
    26  H    4.069957   2.469578   3.779139   3.917794   4.561879
    27  H    5.346191   3.950398   4.829530   2.862324   4.066815
    28  O    5.465400   3.788897   4.517796   4.247010   5.447301
    29  C    6.475968   4.725645   5.737401   5.244767   6.511918
    30  H    7.199111   5.436905   6.302509   6.052352   7.388769
    31  H    7.091737   5.404860   6.430188   5.066456   6.461562
    32  H    6.234915   4.475670   5.752326   5.773192   6.833873
                   16         17         18         19         20
    16  H    0.000000
    17  H    1.753878   0.000000
    18  H    1.796851   1.776878   0.000000
    19  H    3.600558   2.371558   2.959956   0.000000
    20  H    4.185790   3.622258   3.749181   1.789247   0.000000
    21  H    3.806222   3.180377   2.653759   1.780354   1.770472
    22  C    4.708497   5.617805   5.976556   5.886798   5.073050
    23  H    5.312749   6.197562   6.744252   6.625201   5.953664
    24  H    5.184803   6.286743   6.370516   6.555751   5.591170
    25  C    5.299682   5.812795   6.261426   5.465081   4.380745
    26  H    5.156873   5.377732   6.110629   4.948369   4.079760
    27  H    5.146022   5.620055   5.828481   5.003590   3.673376
    28  O    6.680937   7.217186   7.663626   6.774323   5.580150
    29  C    7.561402   7.856084   8.324199   6.995586   5.653158
    30  H    8.559110   8.913885   9.375807   8.086389   6.731382
    31  H    7.533748   7.804931   8.086049   6.734892   5.211621
    32  H    7.572673   7.639501   8.304077   6.659418   5.457424
                   21         22         23         24         25
    21  H    0.000000
    22  C    6.128921   0.000000
    23  H    7.052366   1.090125   0.000000
    24  H    6.528009   1.094708   1.750651   0.000000
    25  C    5.768016   1.531219   2.147499   2.148051   0.000000
    26  H    5.573840   2.173894   2.537271   3.067426   1.104175
    27  H    5.032581   2.173960   3.062321   2.479207   1.099308
    28  O    7.050786   2.361561   2.537708   2.614201   1.415030
    29  C    7.273797   3.662930   3.902422   3.915211   2.356114
    30  H    8.345717   4.385390   4.456036   4.501393   3.276534
    31  H    6.788650   4.015200   4.504235   4.126456   2.652636
    32  H    7.170031   4.068623   4.230860   4.565368   2.662611
                   26         27         28         29         30
    26  H    0.000000
    27  H    1.776912   0.000000
    28  O    2.082736   2.085504   0.000000
    29  C    2.675555   2.612303   1.413206   0.000000
    30  H    3.648649   3.604511   2.025993   1.092499   0.000000
    31  H    3.088004   2.429049   2.088509   1.100453   1.785216
    32  H    2.508076   2.996232   2.089403   1.101444   1.783805
                   31         32
    31  H    0.000000
    32  H    1.783820   0.000000
 Stoichiometry    C9H18N2O3
 Framework group  C1[X(C9H18N2O3)]
 Deg. of freedom    90
 Full point group                 C1      NOp   1
 Largest Abelian subgroup         C1      NOp   1
 Largest concise Abelian subgroup C1      NOp   1
                         Standard orientation:                         
 ---------------------------------------------------------------------
 Center     Atomic      Atomic             Coordinates (Angstroms)
 Number     Number       Type             X           Y           Z
 ---------------------------------------------------------------------
      1          6           0        0.601252    2.824735   -0.978493
      2          6           0       -0.363543    2.017552   -0.118290
      3          8           0       -1.563577    2.274701   -0.141938
      4          7           0        0.163977    1.064771    0.721196
      5          6           0       -0.690069    0.123331    1.464316
      6          6           0       -1.250518   -1.086123    0.667531
      7          8           0       -0.662040   -2.159656    0.830073
      8          7           0       -2.175768   -0.944976   -0.336302
      9          6           0       -3.323776   -0.037946   -0.271420
     10          6           0       -2.410305   -2.129163   -1.160966
     11          1           0       -0.006056    3.451710   -1.630273
     12          1           0        1.256601    2.195480   -1.586836
     13          1           0        1.234749    3.472792   -0.363845
     14          1           0       -0.114052   -0.313319    2.277229
     15          1           0       -1.506914    0.715817    1.892366
     16          1           0       -3.077140    0.859110    0.285119
     17          1           0       -3.594828    0.271989   -1.284396
     18          1           0       -4.189732   -0.547597    0.175626
     19          1           0       -2.813091   -1.803610   -2.124076
     20          1           0       -1.473677   -2.664154   -1.307474
     21          1           0       -3.127828   -2.818291   -0.695431
     22          6           0        1.604753    0.785977    0.779557
     23          1           0        2.166703    1.681116    0.512516
     24          1           0        1.866866    0.552004    1.816350
     25          6           0        2.062496   -0.370414   -0.113675
     26          1           0        1.762105   -0.183768   -1.159683
     27          1           0        1.588573   -1.310224    0.203549
     28          8           0        3.471145   -0.435387    0.003785
     29          6           0        4.030289   -1.526214   -0.699497
     30          1           0        5.110671   -1.493861   -0.540491
     31          1           0        3.643192   -2.489239   -0.333799
     32          1           0        3.828686   -1.462186   -1.780439
 ---------------------------------------------------------------------
 Rotational constants (GHZ):      0.8043031      0.4707602      0.3477967
 Standard basis: 6-31G(d,p) (6D, 7F)
 There are   300 symmetry adapted basis functions of A   symmetry.
 Integral buffers will be    131072 words long.
 Raffenetti 2 integral format.
 Two-electron integral symmetry is turned on.
   300 basis functions,   518 primitive gaussians,   300 cartesian basis functions
    55 alpha electrons       55 beta electrons
       nuclear repulsion energy       984.4462503166 Hartrees.
 NAtoms=   32 NActive=   32 NUniq=   32 SFac= 1.00D+00 NAtFMM=   60 NAOKFM=F Big=F
 One-electron integrals computed using PRISM.
 NBasis=   300 RedAO= T  NBF=   300
 NBsUse=   300 1.00D-06 NBFU=   300
 Initial guess read from the read-write file.
 B after Tr=     0.000000    0.000000    0.000000
         Rot=    1.000000    0.000000    0.000000    0.000000 Ang=   0.00 deg.
 Initial guess orbital symmetries:
       Occupied  (A) (A) (A) (A) (A) (A) (A) (A) (A) (A) (A) (A)
                 (A) (A) (A) (A) (A) (A) (A) (A) (A) (A) (A) (A)
                 (A) (A) (A) (A) (A) (A) (A) (A) (A) (A) (A) (A)
                 (A) (A) (A) (A) (A) (A) (A) (A) (A) (A) (A) (A)
                 (A) (A) (A) (A) (A) (A) (A)
       Virtual   (A) (A) (A) (A) (A) (A) (A) (A) (A) (A) (A) (A)
                 (A) (A) (A) (A) (A) (A) (A) (A) (A) (A) (A) (A)
                 (A) (A) (A) (A) (A) (A) (A) (A) (A) (A) (A) (A)
                 (A) (A) (A) (A) (A) (A) (A) (A) (A) (A) (A) (A)
                 (A) (A) (A) (A) (A) (A) (A) (A) (A) (A) (A) (A)
                 (A) (A) (A) (A) (A) (A) (A) (A) (A) (A) (A) (A)
                 (A) (A) (A) (A) (A) (A) (A) (A) (A) (A) (A) (A)
                 (A) (A) (A) (A) (A) (A) (A) (A) (A) (A) (A) (A)
                 (A) (A) (A) (A) (A) (A) (A) (A) (A) (A) (A) (A)
                 (A) (A) (A) (A) (A) (A) (A) (A) (A) (A) (A) (A)
                 (A) (A) (A) (A) (A) (A) (A) (A) (A) (A) (A) (A)
                 (A) (A) (A) (A) (A) (A) (A) (A) (A) (A) (A) (A)
                 (A) (A) (A) (A) (A) (A) (A) (A) (A) (A) (A) (A)
                 (A) (A) (A) (A) (A) (A) (A) (A) (A) (A) (A) (A)
                 (A) (A) (A) (A) (A) (A) (A) (A) (A) (A) (A) (A)
                 (A) (A) (A) (A) (A) (A) (A) (A) (A) (A) (A) (A)
                 (A) (A) (A) (A) (A) (A) (A) (A) (A) (A) (A) (A)
                 (A) (A) (A) (A) (A) (A) (A) (A) (A) (A) (A) (A)
                 (A) (A) (A) (A) (A) (A) (A) (A) (A) (A) (A) (A)
                 (A) (A) (A) (A) (A) (A) (A) (A) (A) (A) (A) (A)
                 (A) (A) (A) (A) (A)
 Harris functional with IExCor=  402 diagonalized for initial guess.
 ExpMin= 1.61D-01 ExpMax= 5.48D+03 ExpMxC= 8.25D+02 IAcc=1 IRadAn=         1 AccDes= 0.00D+00
 HarFok:  IExCor=  402 AccDes= 0.00D+00 IRadAn=         1 IDoV= 1
 ScaDFX=  1.000000  1.000000  1.000000  1.000000
 FoFCou: FMM=F IPFlag=           0 FMFlag=      100000 FMFlg1=           0
         NFxFlg=           0 DoJE=T BraDBF=F KetDBF=T FulRan=T
         Omega=  0.000000  0.000000  1.000000  0.000000  0.000000 ICntrl=     500 IOpCl=  0
         NMat0=    1 NMatS0=    1 NMatT0=    0 NMatD0=    1 NMtDS0=    0 NMtDT0=    0
         I1Cent=           4 NGrid=           0.
 Petite list used in FoFCou.
