 Entering Gaussian System, Link 0=/data/opt/apps/g09-C01/g09
 Initial command:
 /data/opt/apps/g09-C01/l1.exe /tmp/g09-tuu61186-1307526c21e64fea8x/Gau-1307663.inp -scrdir=/tmp/g09-tuu61186-1307526c21e64fea8x/
 Entering Link 1 = /data/opt/apps/g09-C01/l1.exe PID=   1307673.
  
 Copyright (c) 1988,1990,1992,1993,1995,1998,2003,2009,2011,
            Gaussian, Inc.  All Rights Reserved.
  
 This is part of the Gaussian(R) 09 program.  It is based on
 the Gaussian(R) 03 system (copyright 2003, Gaussian, Inc.),
 the Gaussian(R) 98 system (copyright 1998, Gaussian, Inc.),
 the Gaussian(R) 94 system (copyright 1995, Gaussian, Inc.),
 the Gaussian 92(TM) system (copyright 1992, Gaussian, Inc.),
 the Gaussian 90(TM) system (copyright 1990, Gaussian, Inc.),
 the Gaussian 88(TM) system (copyright 1988, Gaussian, Inc.),
 the Gaussian 86(TM) system (copyright 1986, Carnegie Mellon
 University), and the Gaussian 82(TM) system (copyright 1983,
 Carnegie Mellon University). Gaussian is a federally registered
 trademark of Gaussian, Inc.
  
 This software contains proprietary and confidential information,
 including trade secrets, belonging to Gaussian, Inc.
  
 This software is provided under written license and may be
 used, copied, transmitted, or stored only in accord with that
 written license.
  
 The following legend is applicable only to US Government
 contracts under FAR:
  
                    RESTRICTED RIGHTS LEGEND
  
 Use, reproduction and disclosure by the US Government is
 subject to restrictions as set forth in subparagraphs (a)
 and (c) of the Commercial Computer Software - Restricted
 Rights clause in FAR 52.227-19.
  
 Gaussian, Inc.
 340 Quinnipiac St., Bldg. 40, Wallingford CT 06492
  
  
 ---------------------------------------------------------------
 Warning -- This program may not be used in any manner that
 competes with the business of Gaussian, Inc. or will provide
 assistance to any competitor of Gaussian, Inc.  The licensee
 of this program is prohibited from giving any competitor of
 Gaussian, Inc. access to this program.  By using this program,
 the user acknowledges that Gaussian, Inc. is engaged in the
 business of creating and licensing software in the field of
 computational chemistry and represents and warrants to the
 licensee that it is not a competitor of Gaussian, Inc. and that
 it will not use this program in any manner prohibited above.
 ---------------------------------------------------------------
  

 Cite this work as:
 Gaussian 09, Revision C.01,
 M. J. Frisch, G. W. Trucks, H. B. Schlegel, G. E. Scuseria, 
 M. A. Robb, J. R. Cheeseman, G. Scalmani, V. Barone, B. Mennucci, 
 G. A. Petersson, H. Nakatsuji, M. Caricato, X. Li, H. P. Hratchian, 
 A. F. Izmaylov, J. Bloino, G. Zheng, J. L. Sonnenberg, M. Hada, 
 M. Ehara, K. Toyota, R. Fukuda, J. Hasegawa, M. Ishida, T. Nakajima, 
 Y. Honda, O. Kitao, H. Nakai, T. Vreven, J. A. Montgomery, Jr., 
 J. E. Peralta, F. Ogliaro, M. Bearpark, J. J. Heyd, E. Brothers, 
 K. N. Kudin, V. N. Staroverov, T. Keith, R. Kobayashi, J. Normand, 
 K. Raghavachari, A. Rendell, J. C. Burant, S. S. Iyengar, J. Tomasi, 
 M. Cossi, N. Rega, J. M. Millam, M. Klene, J. E. Knox, J. B. Cross, 
 V. Bakken, C. Adamo, J. Jaramillo, R. Gomperts, R. E. Stratmann, 
 O. Yazyev, A. J. Austin, R. Cammi, C. Pomelli, J. W. Ochterski, 
 R. L. Martin, K. Morokuma, V. G. Zakrzewski, G. A. Voth, 
 P. Salvador, J. J. Dannenberg, S. Dapprich, A. D. Daniels, 
 O. Farkas, J. B. Foresman, J. V. Ortiz, J. Cioslowski, 
 and D. J. Fox, Gaussian, Inc., Wallingford CT, 2010.
 
 ******************************************
 Gaussian 09:  EM64L-G09RevC.01 23-Sep-2011
                24-Apr-2026 
 ******************************************
 %nprocshared=8
 Will use up to    8 processors via shared memory.
 %mem=14GB
 -----------------------------------
 # opt=modredundant b3lyp/6-31g(d,p)
 -----------------------------------
 1/14=-1,18=120,19=15,26=3,38=1/1,3;
 2/9=110,12=2,17=6,18=5,40=1/2;
 3/5=1,6=6,7=101,11=2,16=1,25=1,30=1,71=1,74=-5/1,2,3;
 4//1;
 5/5=2,38=5/2;
 6/7=2,8=2,9=2,10=2,28=1/1;
 7//1,2,3,16;
 1/14=-1,18=20,19=15/3(2);
 2/9=110/2;
 99//99;
 2/9=110/2;
 3/5=1,6=6,7=101,11=2,16=1,25=1,30=1,71=1,74=-5/1,2,3;
 4/5=5,16=3/1;
 5/5=2,38=5/2;
 7//1,2,3,16;
 1/14=-1,18=20,19=15/3(-5);
 2/9=110/2;
 6/7=2,8=2,9=2,10=2,19=2,28=1/1;
 99/9=1/99;
 ---------------
 QM dihedral opt
 ---------------
 Charge =  0 Multiplicity = 1
 Symbolic Z-Matrix:
 C                     0.8359    2.71371  -0.53795 
 C                    -0.11198   1.55102  -0.26906 
 O                    -1.27703   1.60493  -0.65034 
 N                     0.38978   0.46032   0.4041 
 C                    -0.47248  -0.64716   0.8494 
 C                    -1.99677  -0.42866   0.77647 
 O                    -2.56642   0.0551    1.7468 
 N                    -2.67544  -0.98003  -0.28533 
 C                    -2.07839  -1.15842  -1.6 
 C                    -4.12091  -0.78639  -0.29929 
 H                     0.28733   3.43585  -1.14125 
 H                     1.73874   2.40915  -1.07556 
 H                     1.14676   3.19726   0.39408 
 H                    -0.18597  -1.56972   0.33069 
 H                    -0.28375  -0.80085   1.916 
 H                    -1.01049  -1.36212  -1.52493 
 H                    -2.55227  -2.00829  -2.1028 
 H                    -2.20442  -0.25876  -2.21495 
 H                    -4.58668  -1.59525  -0.87054 
 H                    -4.48952  -0.79286   0.72488 
 H                    -4.38992   0.17448  -0.75929 
 C                     1.78864   0.3418    0.81084 
 H                     2.24061   1.32715   0.92674 
 H                     1.83181  -0.14065   1.7928 
 C                     2.62801  -0.47702  -0.17434 
 H                     2.63499   0.01111  -1.16401 
 H                     2.19122  -1.48075  -0.31182 
 O                     3.93155  -0.56328   0.35928 
 C                     4.81654  -1.30487  -0.45615 
 H                     5.7873   -1.31316   0.04417 
 H                     4.47515  -2.34314  -0.58912 
 H                     4.93257  -0.84958  -1.4519 
 
 The following ModRedundant input section has been read:
 D       2       4       5       6 F                                           
 D       4       5       6       8 S  36 10.000                                

 GradGradGradGradGradGradGradGradGradGradGradGradGradGradGradGradGradGrad
 Berny optimization.
 Initialization pass.
                           ----------------------------
                           !    Initial Parameters    !
                           ! (Angstroms and Degrees)  !
 --------------------------                            --------------------------
 ! Name  Definition              Value          Derivative Info.                !
 --------------------------------------------------------------------------------
 ! R1    R(1,2)                  1.524          estimate D2E/DX2                !
 ! R2    R(1,11)                 1.0892         estimate D2E/DX2                !
 ! R3    R(1,12)                 1.094          estimate D2E/DX2                !
 ! R4    R(1,13)                 1.0951         estimate D2E/DX2                !
 ! R5    R(2,3)                  1.227          estimate D2E/DX2                !
 ! R6    R(2,4)                  1.3764         estimate D2E/DX2                !
 ! R7    R(4,5)                  1.4725         estimate D2E/DX2                !
 ! R8    R(4,22)                 1.4616         estimate D2E/DX2                !
 ! R9    R(5,6)                  1.5416         estimate D2E/DX2                !
 ! R10   R(5,14)                 1.0965         estimate D2E/DX2                !
 ! R11   R(5,15)                 1.094          estimate D2E/DX2                !
 ! R12   R(6,7)                  1.2248         estimate D2E/DX2                !
 ! R13   R(6,8)                  1.3755         estimate D2E/DX2                !
 ! R14   R(8,9)                  1.4549         estimate D2E/DX2                !
 ! R15   R(8,10)                 1.4585         estimate D2E/DX2                !
 ! R16   R(9,16)                 1.0898         estimate D2E/DX2                !
 ! R17   R(9,17)                 1.0953         estimate D2E/DX2                !
 ! R18   R(9,18)                 1.097          estimate D2E/DX2                !
 ! R19   R(10,19)                1.0943         estimate D2E/DX2                !
 ! R20   R(10,20)                1.0885         estimate D2E/DX2                !
 ! R21   R(10,21)                1.0987         estimate D2E/DX2                !
 ! R22   R(22,23)                1.0902         estimate D2E/DX2                !
 ! R23   R(22,24)                1.0949         estimate D2E/DX2                !
 ! R24   R(22,25)                1.5315         estimate D2E/DX2                !
 ! R25   R(25,26)                1.1035         estimate D2E/DX2                !
 ! R26   R(25,27)                1.1032         estimate D2E/DX2                !
 ! R27   R(25,28)                1.4112         estimate D2E/DX2                !
 ! R28   R(28,29)                1.4135         estimate D2E/DX2                !
 ! R29   R(29,30)                1.0921         estimate D2E/DX2                !
 ! R30   R(29,31)                1.101          estimate D2E/DX2                !
 ! R31   R(29,32)                1.101          estimate D2E/DX2                !
 ! A1    A(2,1,11)             106.875          estimate D2E/DX2                !
 ! A2    A(2,1,12)             112.8049         estimate D2E/DX2                !
 ! A3    A(2,1,13)             111.301          estimate D2E/DX2                !
 ! A4    A(11,1,12)            109.1482         estimate D2E/DX2                !
 ! A5    A(11,1,13)            108.7619         estimate D2E/DX2                !
 ! A6    A(12,1,13)            107.8731         estimate D2E/DX2                !
 ! A7    A(1,2,3)              120.1459         estimate D2E/DX2                !
 ! A8    A(1,2,4)              117.6523         estimate D2E/DX2                !
 ! A9    A(3,2,4)              122.2016         estimate D2E/DX2                !
 ! A10   A(2,4,5)              122.0335         estimate D2E/DX2                !
 ! A11   A(2,4,22)             123.3149         estimate D2E/DX2                !
 ! A12   A(5,4,22)             114.5377         estimate D2E/DX2                !
 ! A13   A(4,5,6)              117.2642         estimate D2E/DX2                !
 ! A14   A(4,5,14)             109.6784         estimate D2E/DX2                !
 ! A15   A(4,5,15)             107.4259         estimate D2E/DX2                !
 ! A16   A(6,5,14)             110.8077         estimate D2E/DX2                !
 ! A17   A(6,5,15)             103.686          estimate D2E/DX2                !
 ! A18   A(14,5,15)            107.3339         estimate D2E/DX2                !
 ! A19   A(5,6,7)              118.5798         estimate D2E/DX2                !
 ! A20   A(5,6,8)              117.8763         estimate D2E/DX2                !
 ! A21   A(7,6,8)              122.712          estimate D2E/DX2                !
 ! A22   A(6,8,9)              122.9713         estimate D2E/DX2                !
 ! A23   A(6,8,10)             116.3065         estimate D2E/DX2                !
 ! A24   A(9,8,10)             114.4788         estimate D2E/DX2                !
 ! A25   A(8,9,16)             111.2739         estimate D2E/DX2                !
 ! A26   A(8,9,17)             109.4158         estimate D2E/DX2                !
 ! A27   A(8,9,18)             111.0295         estimate D2E/DX2                !
 ! A28   A(16,9,17)            108.093          estimate D2E/DX2                !
 ! A29   A(16,9,18)            107.727          estimate D2E/DX2                !
 ! A30   A(17,9,18)            109.2266         estimate D2E/DX2                !
 ! A31   A(8,10,19)            109.1894         estimate D2E/DX2                !
 ! A32   A(8,10,20)            109.0159         estimate D2E/DX2                !
 ! A33   A(8,10,21)            111.2707         estimate D2E/DX2                !
 ! A34   A(19,10,20)           110.038          estimate D2E/DX2                !
 ! A35   A(19,10,21)           108.8831         estimate D2E/DX2                !
 ! A36   A(20,10,21)           108.4336         estimate D2E/DX2                !
 ! A37   A(4,22,23)            110.6746         estimate D2E/DX2                !
 ! A38   A(4,22,24)            108.8467         estimate D2E/DX2                !
 ! A39   A(4,22,25)            112.8847         estimate D2E/DX2                !
 ! A40   A(23,22,24)           106.6516         estimate D2E/DX2                !
 ! A41   A(23,22,25)           108.9281         estimate D2E/DX2                !
 ! A42   A(24,22,25)           108.6452         estimate D2E/DX2                !
 ! A43   A(22,25,26)           110.1124         estimate D2E/DX2                !
 ! A44   A(22,25,27)           110.4623         estimate D2E/DX2                !
 ! A45   A(22,25,28)           107.1993         estimate D2E/DX2                !
 ! A46   A(26,25,27)           107.0486         estimate D2E/DX2                !
 ! A47   A(26,25,28)           111.12           estimate D2E/DX2                !
 ! A48   A(27,25,28)           110.9302         estimate D2E/DX2                !
 ! A49   A(25,28,29)           113.0955         estimate D2E/DX2                !
 ! A50   A(28,29,30)           107.2307         estimate D2E/DX2                !
 ! A51   A(28,29,31)           111.7327         estimate D2E/DX2                !
 ! A52   A(28,29,32)           111.7611         estimate D2E/DX2                !
 ! A53   A(30,29,31)           108.892          estimate D2E/DX2                !
 ! A54   A(30,29,32)           108.8915         estimate D2E/DX2                !
 ! A55   A(31,29,32)           108.2637         estimate D2E/DX2                !
 ! D1    D(11,1,2,3)            -4.2724         estimate D2E/DX2                !
 ! D2    D(11,1,2,4)           175.5878         estimate D2E/DX2                !
 ! D3    D(12,1,2,3)          -124.2317         estimate D2E/DX2                !
 ! D4    D(12,1,2,4)            55.6285         estimate D2E/DX2                !
 ! D5    D(13,1,2,3)           114.3497         estimate D2E/DX2                !
 ! D6    D(13,1,2,4)           -65.7901         estimate D2E/DX2                !
 ! D7    D(1,2,4,5)            172.9158         estimate D2E/DX2                !
 ! D8    D(1,2,4,22)            -2.9904         estimate D2E/DX2                !
 ! D9    D(3,2,4,5)             -7.227          estimate D2E/DX2                !
 ! D10   D(3,2,4,22)           176.8668         estimate D2E/DX2                !
 ! D11   D(2,4,5,6)            -11.3301         Frozen                          !
 ! D12   D(2,4,5,14)           116.1669         estimate D2E/DX2                !
 ! D13   D(2,4,5,15)          -127.4807         estimate D2E/DX2                !
 ! D14   D(22,4,5,6)           164.9098         estimate D2E/DX2                !
 ! D15   D(22,4,5,14)          -67.5932         estimate D2E/DX2                !
 ! D16   D(22,4,5,15)           48.7592         estimate D2E/DX2                !
 ! D17   D(2,4,22,23)           25.2776         estimate D2E/DX2                !
 ! D18   D(2,4,22,24)          142.1776         estimate D2E/DX2                !
 ! D19   D(2,4,22,25)          -97.108          estimate D2E/DX2                !
 ! D20   D(5,4,22,23)         -150.9078         estimate D2E/DX2                !
 ! D21   D(5,4,22,24)          -34.0079         estimate D2E/DX2                !
 ! D22   D(5,4,22,25)           86.7065         estimate D2E/DX2                !
 ! D23   D(4,5,6,7)            -89.686          estimate D2E/DX2                !
 ! D24   D(4,5,6,8)            100.4686         Scan                            !
 ! D25   D(14,5,6,7)           143.3652         estimate D2E/DX2                !
 ! D26   D(14,5,6,8)           -26.4801         estimate D2E/DX2                !
 ! D27   D(15,5,6,7)            28.4939         estimate D2E/DX2                !
 ! D28   D(15,5,6,8)          -141.3515         estimate D2E/DX2                !
 ! D29   D(5,6,8,9)            -31.1215         estimate D2E/DX2                !
 ! D30   D(5,6,8,10)           178.2264         estimate D2E/DX2                !
 ! D31   D(7,6,8,9)            159.4817         estimate D2E/DX2                !
 ! D32   D(7,6,8,10)             8.8297         estimate D2E/DX2                !
 ! D33   D(6,8,9,16)            32.518          estimate D2E/DX2                !
 ! D34   D(6,8,9,17)           151.8981         estimate D2E/DX2                !
 ! D35   D(6,8,9,18)           -87.4657         estimate D2E/DX2                !
 ! D36   D(10,8,9,16)         -176.3469         estimate D2E/DX2                !
 ! D37   D(10,8,9,17)          -56.9668         estimate D2E/DX2                !
 ! D38   D(10,8,9,18)           63.6694         estimate D2E/DX2                !
 ! D39   D(6,8,10,19)         -154.4105         estimate D2E/DX2                !
 ! D40   D(6,8,10,20)          -34.1662         estimate D2E/DX2                !
 ! D41   D(6,8,10,21)           85.3766         estimate D2E/DX2                !
 ! D42   D(9,8,10,19)           52.4478         estimate D2E/DX2                !
 ! D43   D(9,8,10,20)          172.6921         estimate D2E/DX2                !
 ! D44   D(9,8,10,21)          -67.7651         estimate D2E/DX2                !
 ! D45   D(4,22,25,26)          61.4763         estimate D2E/DX2                !
 ! D46   D(4,22,25,27)         -56.5508         estimate D2E/DX2                !
 ! D47   D(4,22,25,28)        -177.524          estimate D2E/DX2                !
 ! D48   D(23,22,25,26)        -61.8825         estimate D2E/DX2                !
 ! D49   D(23,22,25,27)       -179.9096         estimate D2E/DX2                !
 ! D50   D(23,22,25,28)         59.1173         estimate D2E/DX2                !
 ! D51   D(24,22,25,26)       -177.6945         estimate D2E/DX2                !
 ! D52   D(24,22,25,27)         64.2784         estimate D2E/DX2                !
 ! D53   D(24,22,25,28)        -56.6947         estimate D2E/DX2                !
 ! D54   D(22,25,28,29)        179.7583         estimate D2E/DX2                !
 ! D55   D(26,25,28,29)        -59.8808         estimate D2E/DX2                !
 ! D56   D(27,25,28,29)         59.0814         estimate D2E/DX2                !
 ! D57   D(25,28,29,30)       -179.8278         estimate D2E/DX2                !
 ! D58   D(25,28,29,31)        -60.5816         estimate D2E/DX2                !
 ! D59   D(25,28,29,32)         60.9102         estimate D2E/DX2                !
 --------------------------------------------------------------------------------
 Trust Radius=3.00D-01 FncErr=1.00D-07 GrdErr=1.00D-06
 Number of optimizations in scan=  37
 Number of steps in this run=    155 maximum allowed number of steps=    192.
 GradGradGradGradGradGradGradGradGradGradGradGradGradGradGradGradGradGrad

                          Input orientation:                          
 ---------------------------------------------------------------------
 Center     Atomic      Atomic             Coordinates (Angstroms)
 Number     Number       Type             X           Y           Z
 ---------------------------------------------------------------------
      1          6           0        0.835901    2.713709   -0.537954
      2          6           0       -0.111980    1.551024   -0.269057
      3          8           0       -1.277027    1.604925   -0.650341
      4          7           0        0.389779    0.460318    0.404103
      5          6           0       -0.472475   -0.647155    0.849399
      6          6           0       -1.996771   -0.428662    0.776468
      7          8           0       -2.566417    0.055104    1.746803
      8          7           0       -2.675439   -0.980028   -0.285328
      9          6           0       -2.078395   -1.158423   -1.599997
     10          6           0       -4.120912   -0.786388   -0.299287
     11          1           0        0.287327    3.435853   -1.141246
     12          1           0        1.738735    2.409154   -1.075564
     13          1           0        1.146763    3.197255    0.394083
     14          1           0       -0.185968   -1.569721    0.330686
     15          1           0       -0.283753   -0.800845    1.915996
     16          1           0       -1.010487   -1.362122   -1.524931
     17          1           0       -2.552268   -2.008289   -2.102801
     18          1           0       -2.204415   -0.258757   -2.214954
     19          1           0       -4.586678   -1.595254   -0.870544
     20          1           0       -4.489519   -0.792856    0.724875
     21          1           0       -4.389924    0.174478   -0.759292
     22          6           0        1.788635    0.341802    0.810840
     23          1           0        2.240606    1.327153    0.926735
     24          1           0        1.831810   -0.140649    1.792798
     25          6           0        2.628012   -0.477024   -0.174341
     26          1           0        2.634987    0.011112   -1.164014
     27          1           0        2.191224   -1.480750   -0.311823
     28          8           0        3.931546   -0.563276    0.359275
     29          6           0        4.816544   -1.304873   -0.456148
     30          1           0        5.787303   -1.313160    0.044167
     31          1           0        4.475149   -2.343139   -0.589123
     32          1           0        4.932566   -0.849584   -1.451903
 ---------------------------------------------------------------------
                    Distance matrix (angstroms):
                    1          2          3          4          5
     1  C    0.000000
     2  C    1.524015   0.000000
     3  O    2.388828   1.227036   0.000000
     4  N    2.482794   1.376425   2.280399   0.000000
     5  C    3.864195   2.492567   2.822833   1.472504   0.000000
     6  C    4.430150   2.926554   2.586366   2.573822   1.541602
     7  O    4.885086   3.510802   3.132215   3.272023   2.383924
     8  N    5.102648   3.602473   2.961549   3.456222   2.500292
     9  C    4.961296   3.602678   3.029873   3.567719   2.973199
    10  C    6.072696   4.640684   3.732198   4.732374   3.827526
    11  H    1.089214   2.114885   2.457741   3.354461   4.605532
    12  H    1.094024   2.193624   3.149987   2.794111   4.235086
    13  H    1.095055   2.175837   3.082385   2.839709   4.196276
    14  H    4.488488   3.178713   3.497313   2.111382   1.096484
    15  H    4.430303   3.214848   3.655189   2.080865   1.094014
    16  H    4.582103   3.297113   3.104725   3.000534   2.537337
    17  H    6.018779   4.688958   4.097706   4.586309   3.859237
    18  H    4.570712   3.382323   2.604107   3.755845   3.541289
    19  H    6.934129   5.503070   4.609059   5.533103   4.558921
    20  H    6.500064   5.064042   4.238004   5.047860   4.021614
    21  H    5.814287   4.520621   3.427561   4.927550   4.313858
    22  C    2.890137   2.498146   3.623370   1.461602   2.468226
    23  H    2.457854   2.648527   3.864980   2.109528   3.356290
    24  H    3.817276   3.300200   4.322132   2.090236   2.540921
    25  C    3.677588   3.410206   4.450889   2.494573   3.269558
    26  H    3.306462   3.273852   4.255344   2.775200   3.760780
    27  H    4.413788   3.807654   4.654541   2.743264   3.023013
    28  O    4.596376   4.605993   5.731462   3.686986   4.432004
    29  C    5.656961   5.699254   6.755460   4.842745   5.487328
    30  H    6.408660   6.565303   7.674785   5.692806   6.346399
    31  H    6.230446   6.025670   6.976997   5.053327   5.424453
    32  H    5.505908   5.710472   6.725040   5.079125   5.878047
                    6          7          8          9         10
     6  C    0.000000
     7  O    1.224776   0.000000
     8  N    1.375502   2.283186   0.000000
     9  C    2.487328   3.593311   1.454868   0.000000
    10  C    2.407736   2.703895   1.458452   2.449925   0.000000
    11  H    4.881517   5.283384   5.386147   5.187915   6.161882
    12  H    5.043533   5.660534   5.621028   5.251011   6.719342
    13  H    4.814073   5.048829   5.702677   5.774940   6.640676
    14  H    2.186263   3.211227   2.631478   2.734590   4.061313
    15  H    2.090807   2.443733   3.255472   3.963686   4.430742
    16  H    2.672179   3.890205   2.110610   1.089750   3.392406
    17  H    3.330764   4.367750   2.091817   1.095281   2.684464
    18  H    3.003430   3.990623   2.113185   1.097020   2.760640
    19  H    3.283474   3.695354   2.091367   2.648473   1.094320
    20  H    2.519740   2.337027   2.084809   3.369301   1.088495
    21  H    2.906805   3.101603   2.120610   2.797602   1.098743
    22  C    3.863172   4.463709   4.782967   4.797576   6.117838
    23  H    4.589208   5.039652   5.564142   5.587149   6.814624
    24  H    3.971638   4.402821   5.033732   5.276043   6.342610
    25  C    4.721758   5.563816   5.328407   4.964581   6.757166
    26  H    5.041037   5.960654   5.473123   4.875845   6.857546
    27  H    4.453153   5.406657   4.892426   4.471346   6.350225
    28  O    5.944503   6.673166   6.651424   6.349200   8.082423
    29  C    6.979137   7.823723   7.500967   6.990710   8.953857
    30  H    7.868317   8.634567   8.475703   8.037190   9.928151
    31  H    6.885914   7.796908   7.285690   6.736049   8.740695
    32  H    7.290989   8.202739   7.698029   7.019322   9.126773
                   11         12         13         14         15
    11  H    0.000000
    12  H    1.779048   0.000000
    13  H    1.775611   1.769575   0.000000
    14  H    5.238928   4.638261   4.950177   0.000000
    15  H    5.255708   4.831561   4.510809   1.764636   0.000000
    16  H    4.985188   4.688569   5.396690   2.041138   3.561341
    17  H    6.215028   6.243535   6.856745   3.422510   4.770200
    18  H    4.583860   4.895344   5.475535   3.503290   4.587761
    19  H    7.010081   7.489203   7.578903   4.561782   5.187587
    20  H    6.647003   7.230878   6.913616   4.390838   4.371190
    21  H    5.714817   6.531023   6.412672   4.680121   4.996905
    22  C    3.954455   2.799099   2.956230   2.789897   2.611858
    23  H    3.540969   2.330623   2.231029   3.825626   3.446651
    24  H    4.877029   3.838966   3.683381   2.872533   2.219604
    25  C    4.660935   3.151673   4.002191   3.060641   3.598992
    26  H    4.152213   2.561581   3.846295   3.562436   4.320275
    27  H    5.337204   3.989912   4.844887   2.464097   3.398670
    28  O    5.614706   3.962641   4.679511   4.238829   4.499841
    29  C    6.592242   4.863186   5.870208   5.070935   5.647490
    30  H    7.362613   5.612515   6.480810   5.985640   6.373691
    31  H    7.158173   5.505350   6.537646   4.813547   5.594769
    32  H    6.327695   4.578380   5.840965   5.467688   6.209276
                   16         17         18         19         20
    16  H    0.000000
    17  H    1.768772   0.000000
    18  H    1.766072   1.787300   0.000000
    19  H    3.643037   2.414100   3.044477   0.000000
    20  H    4.182028   3.636753   3.761590   1.788475   0.000000
    21  H    3.790506   3.153802   2.661408   1.784108   1.774375
    22  C    4.024210   5.731987   5.045845   6.871961   6.380443
    23  H    4.879802   6.578366   5.669527   7.640843   7.059020
    24  H    4.536295   6.154991   5.689212   7.099736   6.443992
    25  C    3.980724   5.735768   5.250152   7.333955   7.181057
    26  H    3.912226   5.645079   4.959548   7.403984   7.414368
    27  H    3.425880   5.097707   4.943361   6.801855   6.795607
    28  O    5.349026   7.084471   6.661036   8.668193   8.432123
    29  C    5.924514   7.583248   7.313113   9.416827   9.394668
    30  H    6.976705   8.639509   8.371556  10.418049  10.312475
    31  H    5.650693   7.196383   7.183631   9.096991   9.192129
    32  H    5.965560   7.601908   7.201932   9.566086   9.670433
                   21         22         23         24         25
    21  H    0.000000
    22  C    6.377139   0.000000
    23  H    6.937959   1.090241   0.000000
    24  H    6.732194   1.094927   1.752604   0.000000
    25  C    7.072344   1.531539   2.148838   2.148656   0.000000
    26  H    7.038456   2.173871   2.501746   3.067713   1.103530
    27  H    6.800847   2.178106   3.069330   2.520809   1.103246
    28  O    8.428662   2.369630   2.599040   2.577303   1.411165
    29  C    9.329492   3.672197   3.933876   3.914309   2.356782
    30  H   10.316713   4.395001   4.508796   4.480895   3.275361
    31  H    9.217205   4.047982   4.556539   4.184704   2.658260
    32  H    9.404107   4.052618   4.200328   4.543717   2.661190
                   26         27         28         29         30
    26  H    0.000000
    27  H    1.774488   0.000000
    28  O    2.081201   2.078666   0.000000
    29  C    2.644254   2.635160   1.413542   0.000000
    30  H    3.626361   3.617541   2.026192   1.092134   0.000000
    31  H    3.042892   2.457015   2.088750   1.101013   1.784282
    32  H    2.470333   3.035310   2.089110   1.101035   1.784294
                   31         32
    31  H    0.000000
    32  H    1.784468   0.000000
 Stoichiometry    C9H18N2O3
 Framework group  C1[X(C9H18N2O3)]
 Deg. of freedom    90
 Full point group                 C1      NOp   1
 Largest Abelian subgroup         C1      NOp   1
 Largest concise Abelian subgroup C1      NOp   1
                         Standard orientation:                         
 ---------------------------------------------------------------------
 Center     Atomic      Atomic             Coordinates (Angstroms)
 Number     Number       Type             X           Y           Z
 ---------------------------------------------------------------------
      1          6           0        0.835901    2.713709   -0.537954
      2          6           0       -0.111980    1.551024   -0.269057
      3          8           0       -1.277027    1.604925   -0.650341
      4          7           0        0.389779    0.460318    0.404103
      5          6           0       -0.472475   -0.647155    0.849399
      6          6           0       -1.996771   -0.428662    0.776468
      7          8           0       -2.566417    0.055104    1.746803
      8          7           0       -2.675439   -0.980028   -0.285328
      9          6           0       -2.078395   -1.158423   -1.599997
     10          6           0       -4.120912   -0.786388   -0.299287
     11          1           0        0.287327    3.435853   -1.141246
     12          1           0        1.738735    2.409154   -1.075564
     13          1           0        1.146763    3.197255    0.394083
     14          1           0       -0.185968   -1.569721    0.330686
     15          1           0       -0.283753   -0.800845    1.915996
     16          1           0       -1.010487   -1.362122   -1.524931
     17          1           0       -2.552268   -2.008289   -2.102801
     18          1           0       -2.204415   -0.258757   -2.214954
     19          1           0       -4.586678   -1.595254   -0.870544
     20          1           0       -4.489519   -0.792856    0.724875
     21          1           0       -4.389924    0.174478   -0.759292
     22          6           0        1.788635    0.341802    0.810840
     23          1           0        2.240606    1.327153    0.926735
     24          1           0        1.831810   -0.140649    1.792798
     25          6           0        2.628012   -0.477024   -0.174341
     26          1           0        2.634987    0.011112   -1.164014
     27          1           0        2.191224   -1.480750   -0.311823
     28          8           0        3.931546   -0.563276    0.359275
     29          6           0        4.816544   -1.304873   -0.456148
     30          1           0        5.787303   -1.313160    0.044167
     31          1           0        4.475149   -2.343139   -0.589123
     32          1           0        4.932566   -0.849584   -1.451903
 ---------------------------------------------------------------------
 Rotational constants (GHZ):      1.1503981      0.3317431      0.3045145
 Standard basis: 6-31G(d,p) (6D, 7F)
 There are   300 symmetry adapted basis functions of A   symmetry.
 Integral buffers will be    131072 words long.
 Raffenetti 2 integral format.
 Two-electron integral symmetry is turned on.
   300 basis functions,   518 primitive gaussians,   300 cartesian basis functions
    55 alpha electrons       55 beta electrons
       nuclear repulsion energy       972.0057444180 Hartrees.
 NAtoms=   32 NActive=   32 NUniq=   32 SFac= 1.00D+00 NAtFMM=   60 NAOKFM=F Big=F
 One-electron integrals computed using PRISM.
 NBasis=   300 RedAO= T  NBF=   300
 NBsUse=   300 1.00D-06 NBFU=   300
 Harris functional with IExCor=  402 diagonalized for initial guess.
 ExpMin= 1.61D-01 ExpMax= 5.48D+03 ExpMxC= 8.25D+02 IAcc=1 IRadAn=         1 AccDes= 0.00D+00
 HarFok:  IExCor=  402 AccDes= 0.00D+00 IRadAn=         1 IDoV= 1
 ScaDFX=  1.000000  1.000000  1.000000  1.000000
 FoFCou: FMM=F IPFlag=           0 FMFlag=      100000 FMFlg1=           0
         NFxFlg=           0 DoJE=T BraDBF=F KetDBF=T FulRan=T
         Omega=  0.000000  0.000000  1.000000  0.000000  0.000000 ICntrl=     500 IOpCl=  0
         NMat0=    1 NMatS0=    1 NMatT0=    0 NMatD0=    1 NMtDS0=    0 NMtDT0=    0
         I1Cent=           4 NGrid=           0.
 Petite list used in FoFCou.
 Initial guess orbital symmetries:
       Occupied  (A) (A) (A) (A) (A) (A) (A) (A) (A) (A) (A) (A)
                 (A) (A) (A) (A) (A) (A) (A) (A) (A) (A) (A) (A)
                 (A) (A) (A) (A) (A) (A) (A) (A) (A) (A) (A) (A)
                 (A) (A) (A) (A) (A) (A) (A) (A) (A) (A) (A) (A)
                 (A) (A) (A) (A) (A) (A) (A)
       Virtual   (A) (A) (A) (A) (A) (A) (A) (A) (A) (A) (A) (A)
                 (A) (A) (A) (A) (A) (A) (A) (A) (A) (A) (A) (A)
                 (A) (A) (A) (A) (A) (A) (A) (A) (A) (A) (A) (A)
                 (A) (A) (A) (A) (A) (A) (A) (A) (A) (A) (A) (A)
                 (A) (A) (A) (A) (A) (A) (A) (A) (A) (A) (A) (A)
                 (A) (A) (A) (A) (A) (A) (A) (A) (A) (A) (A) (A)
                 (A) (A) (A) (A) (A) (A) (A) (A) (A) (A) (A) (A)
                 (A) (A) (A) (A) (A) (A) (A) (A) (A) (A) (A) (A)
                 (A) (A) (A) (A) (A) (A) (A) (A) (A) (A) (A) (A)
                 (A) (A) (A) (A) (A) (A) (A) (A) (A) (A) (A) (A)
                 (A) (A) (A) (A) (A) (A) (A) (A) (A) (A) (A) (A)
                 (A) (A) (A) (A) (A) (A) (A) (A) (A) (A) (A) (A)
                 (A) (A) (A) (A) (A) (A) (A) (A) (A) (A) (A) (A)
                 (A) (A) (A) (A) (A) (A) (A) (A) (A) (A) (A) (A)
                 (A) (A) (A) (A) (A) (A) (A) (A) (A) (A) (A) (A)
                 (A) (A) (A) (A) (A) (A) (A) (A) (A) (A) (A) (A)
                 (A) (A) (A) (A) (A) (A) (A) (A) (A) (A) (A) (A)
                 (A) (A) (A) (A) (A) (A) (A) (A) (A) (A) (A) (A)
                 (A) (A) (A) (A) (A) (A) (A) (A) (A) (A) (A) (A)
                 (A) (A) (A) (A) (A) (A) (A) (A) (A) (A) (A) (A)
                 (A) (A) (A) (A) (A)
 The electronic state of the initial guess is 1-A.
 Requested convergence on RMS density matrix=1.00D-08 within 128 cycles.
 Requested convergence on MAX density matrix=1.00D-06.
 Requested convergence on             energy=1.00D-06.
 No special actions if energy rises.
 Keep R1 ints in memory in canonical form, NReq=1033484505.
 Integral accuracy reduced to 1.0D-05 until final iterations.
 Initial convergence to 1.0D-05 achieved.  Increase integral accuracy.
 SCF Done:  E(RB3LYP) =  -688.987161752     A.U. after   14 cycles
             Convg  =    0.8583D-08             -V/T =  2.0093

 **********************************************************************

            Population analysis using the SCF density.

 **********************************************************************

 Orbital symmetries:
       Occupied  (A) (A) (A) (A) (A) (A) (A) (A) (A) (A) (A) (A)
                 (A) (A) (A) (A) (A) (A) (A) (A) (A) (A) (A) (A)
                 (A) (A) (A) (A) (A) (A) (A) (A) (A) (A) (A) (A)
                 (A) (A) (A) (A) (A) (A) (A) (A) (A) (A) (A) (A)
                 (A) (A) (A) (A) (A) (A) (A)
       Virtual   (A) (A) (A) (A) (A) (A) (A) (A) (A) (A) (A) (A)
                 (A) (A) (A) (A) (A) (A) (A) (A) (A) (A) (A) (A)
                 (A) (A) (A) (A) (A) (A) (A) (A) (A) (A) (A) (A)
                 (A) (A) (A) (A) (A) (A) (A) (A) (A) (A) (A) (A)
                 (A) (A) (A) (A) (A) (A) (A) (A) (A) (A) (A) (A)
                 (A) (A) (A) (A) (A) (A) (A) (A) (A) (A) (A) (A)
                 (A) (A) (A) (A) (A) (A) (A) (A) (A) (A) (A) (A)
                 (A) (A) (A) (A) (A) (A) (A) (A) (A) (A) (A) (A)
                 (A) (A) (A) (A) (A) (A) (A) (A) (A) (A) (A) (A)
                 (A) (A) (A) (A) (A) (A) (A) (A) (A) (A) (A) (A)
                 (A) (A) (A) (A) (A) (A) (A) (A) (A) (A) (A) (A)
                 (A) (A) (A) (A) (A) (A) (A) (A) (A) (A) (A) (A)
                 (A) (A) (A) (A) (A) (A) (A) (A) (A) (A) (A) (A)
                 (A) (A) (A) (A) (A) (A) (A) (A) (A) (A) (A) (A)
                 (A) (A) (A) (A) (A) (A) (A) (A) (A) (A) (A) (A)
                 (A) (A) (A) (A) (A) (A) (A) (A) (A) (A) (A) (A)
                 (A) (A) (A) (A) (A) (A) (A) (A) (A) (A) (A) (A)
                 (A) (A) (A) (A) (A) (A) (A) (A) (A) (A) (A) (A)
                 (A) (A) (A) (A) (A) (A) (A) (A) (A) (A) (A) (A)
                 (A) (A) (A) (A) (A) (A) (A) (A) (A) (A) (A) (A)
                 (A) (A) (A) (A) (A)
 The electronic state is 1-A.
 Alpha  occ. eigenvalues --  -19.16347 -19.11310 -19.09615 -14.37378 -14.35051
 Alpha  occ. eigenvalues --  -10.29131 -10.27639 -10.24799 -10.23969 -10.23408
 Alpha  occ. eigenvalues --  -10.23020 -10.21239 -10.19905 -10.19439  -1.04750
 Alpha  occ. eigenvalues --   -1.03600  -1.01622  -0.93909  -0.91845  -0.77611
 Alpha  occ. eigenvalues --   -0.75947  -0.72015  -0.70673  -0.68658  -0.66935
 Alpha  occ. eigenvalues --   -0.63281  -0.56900  -0.52840  -0.51389  -0.50458
 Alpha  occ. eigenvalues --   -0.48980  -0.48777  -0.46882  -0.46072  -0.45759
 Alpha  occ. eigenvalues --   -0.45615  -0.44232  -0.42966  -0.42266  -0.40167
 Alpha  occ. eigenvalues --   -0.39840  -0.39275  -0.39097  -0.38848  -0.38131
 Alpha  occ. eigenvalues --   -0.36704  -0.36629  -0.35998  -0.34498  -0.33374
 Alpha  occ. eigenvalues --   -0.27040  -0.25045  -0.25006  -0.23769  -0.22252
 Alpha virt. eigenvalues --    0.02225   0.02745   0.06802   0.08098   0.09030
 Alpha virt. eigenvalues --    0.10948   0.11886   0.12262   0.13530   0.14262
 Alpha virt. eigenvalues --    0.15258   0.15573   0.15812   0.16142   0.16919
 Alpha virt. eigenvalues --    0.16951   0.17621   0.17919   0.18888   0.19391
 Alpha virt. eigenvalues --    0.20222   0.20832   0.21296   0.21699   0.22965
 Alpha virt. eigenvalues --    0.24152   0.25239   0.26516   0.29474   0.32783
 Alpha virt. eigenvalues --    0.34706   0.38424   0.41171   0.47945   0.48222
 Alpha virt. eigenvalues --    0.50089   0.50382   0.51244   0.53214   0.53928
 Alpha virt. eigenvalues --    0.54727   0.55274   0.55658   0.56154   0.57221
 Alpha virt. eigenvalues --    0.59274   0.60537   0.63010   0.63816   0.65314
 Alpha virt. eigenvalues --    0.65715   0.67410   0.68930   0.69601   0.71930
 Alpha virt. eigenvalues --    0.73108   0.74586   0.74902   0.76163   0.76662
 Alpha virt. eigenvalues --    0.78692   0.79545   0.80344   0.81436   0.82173
 Alpha virt. eigenvalues --    0.83050   0.83934   0.84609   0.85489   0.86603
 Alpha virt. eigenvalues --    0.86983   0.88233   0.89388   0.90070   0.90685
 Alpha virt. eigenvalues --    0.91006   0.91881   0.93382   0.94138   0.94875
 Alpha virt. eigenvalues --    0.96608   0.96799   0.98031   0.98877   1.00211
 Alpha virt. eigenvalues --    1.00343   1.04507   1.04981   1.06630   1.09272
 Alpha virt. eigenvalues --    1.11356   1.15757   1.17447   1.18290   1.22368
 Alpha virt. eigenvalues --    1.24209   1.27576   1.30408   1.32652   1.33934
 Alpha virt. eigenvalues --    1.35179   1.35796   1.36422   1.39489   1.40459
 Alpha virt. eigenvalues --    1.43562   1.45404   1.47431   1.50447   1.53702
 Alpha virt. eigenvalues --    1.54958   1.57502   1.60034   1.65089   1.65570
 Alpha virt. eigenvalues --    1.68735   1.69459   1.70651   1.72126   1.75726
 Alpha virt. eigenvalues --    1.77491   1.79267   1.80639   1.81515   1.83312
 Alpha virt. eigenvalues --    1.84137   1.84573   1.86257   1.87009   1.88567
 Alpha virt. eigenvalues --    1.89075   1.89999   1.92946   1.93942   1.95005
 Alpha virt. eigenvalues --    1.96391   1.96749   1.97483   1.98688   1.99515
 Alpha virt. eigenvalues --    2.01176   2.01738   2.02275   2.02712   2.03511
 Alpha virt. eigenvalues --    2.04136   2.04425   2.04787   2.06951   2.07858
 Alpha virt. eigenvalues --    2.08716   2.09143   2.10861   2.11610   2.11851
 Alpha virt. eigenvalues --    2.13415   2.15076   2.17611   2.18552   2.19687
 Alpha virt. eigenvalues --    2.21601   2.23734   2.24924   2.28276   2.28399
 Alpha virt. eigenvalues --    2.30693   2.31826   2.35988   2.36912   2.39275
 Alpha virt. eigenvalues --    2.42277   2.43349   2.46871   2.49377   2.51196
 Alpha virt. eigenvalues --    2.51283   2.54502   2.55775   2.56707   2.56898
 Alpha virt. eigenvalues --    2.58986   2.61110   2.62447   2.62856   2.65592
 Alpha virt. eigenvalues --    2.66133   2.67630   2.68549   2.70259   2.71236
 Alpha virt. eigenvalues --    2.71869   2.72816   2.73684   2.76765   2.78157
 Alpha virt. eigenvalues --    2.80113   2.83265   2.83723   2.84587   2.85405
 Alpha virt. eigenvalues --    2.87103   2.88351   2.89958   2.91299   2.93175
 Alpha virt. eigenvalues --    2.96147   2.96904   3.00954   3.04424   3.09488
 Alpha virt. eigenvalues --    3.10901   3.12654   3.16234   3.16731   3.19978
 Alpha virt. eigenvalues --    3.22032   3.24587   3.26728   3.34180   3.35510
 Alpha virt. eigenvalues --    3.37512   3.40518   3.41582   3.42227   3.42968
 Alpha virt. eigenvalues --    3.43263   3.45435   3.45947   3.48034   3.51146
 Alpha virt. eigenvalues --    3.54446   3.94305   4.04630   4.06145   4.10898
 Alpha virt. eigenvalues --    4.23960   4.32080   4.36705   4.42600   4.45152
 Alpha virt. eigenvalues --    4.51752   4.53762   4.59090   4.69048   4.74872
          Condensed to atoms (all electrons):
              1          2          3          4          5          6
     1  C    5.155145   0.348523  -0.077144  -0.123273   0.005165   0.000368
     2  C    0.348523   4.367516   0.558408   0.265980  -0.034927   0.003591
     3  O   -0.077144   0.558408   8.092031  -0.088359  -0.009048   0.028285
     4  N   -0.123273   0.265980  -0.088359   7.104445   0.264233  -0.027888
     5  C    0.005165  -0.034927  -0.009048   0.264233   5.042430   0.325404
     6  C    0.000368   0.003591   0.028285  -0.027888   0.325404   4.363469
     7  O   -0.000042   0.001961  -0.005065   0.000459  -0.077849   0.566419
     8  N   -0.000072  -0.001282  -0.011160   0.001610  -0.104252   0.262010
     9  C    0.000091   0.001512   0.002433  -0.002013  -0.001858  -0.025049
    10  C   -0.000001  -0.000014  -0.000638  -0.000080   0.006502  -0.033132
    11  H    0.368057  -0.023104   0.005397   0.004604  -0.000121  -0.000007
    12  H    0.358964  -0.020787   0.001713   0.001609  -0.000099  -0.000010
    13  H    0.364704  -0.022252   0.000970   0.002698  -0.000074  -0.000016
    14  H   -0.000195   0.000443   0.000459  -0.051016   0.346625  -0.027944
    15  H   -0.000138   0.002174   0.000467  -0.039230   0.369348  -0.021496
    16  H   -0.000036   0.000404  -0.001365   0.001035   0.006242  -0.007572
    17  H    0.000001  -0.000019   0.000311  -0.000010  -0.000365   0.002666
    18  H    0.000080   0.000805   0.006732  -0.000352  -0.000273  -0.001683
    19  H    0.000000  -0.000002  -0.000008   0.000000  -0.000142   0.004595
    20  H    0.000000  -0.000009   0.000002  -0.000002   0.000662  -0.004328
    21  H    0.000003   0.000015   0.001187   0.000005  -0.000137  -0.001746
    22  C    0.001283  -0.021241   0.002818   0.248360  -0.042263   0.002344
    23  H    0.008008  -0.009336   0.000089  -0.028833   0.003817  -0.000094
    24  H   -0.000206   0.002582  -0.000087  -0.035235  -0.002859  -0.000010
    25  C   -0.001757  -0.000834  -0.000003  -0.055171  -0.001964  -0.000019
    26  H   -0.000645   0.002040  -0.000065   0.003316  -0.000034  -0.000009
    27  H    0.000099  -0.000234   0.000001   0.001369   0.001591   0.000017
    28  O    0.000008   0.000010   0.000000   0.002143  -0.000025   0.000000
    29  C    0.000000  -0.000002   0.000000  -0.000130   0.000001   0.000000
    30  H    0.000000   0.000000   0.000000   0.000001   0.000000   0.000000
    31  H    0.000000   0.000000   0.000000   0.000010  -0.000002   0.000000
    32  H   -0.000001   0.000000   0.000000   0.000009   0.000000   0.000000
              7          8          9         10         11         12
     1  C   -0.000042  -0.000072   0.000091  -0.000001   0.368057   0.358964
     2  C    0.001961  -0.001282   0.001512  -0.000014  -0.023104  -0.020787
     3  O   -0.005065  -0.011160   0.002433  -0.000638   0.005397   0.001713
     4  N    0.000459   0.001610  -0.002013  -0.000080   0.004604   0.001609
     5  C   -0.077849  -0.104252  -0.001858   0.006502  -0.000121  -0.000099
     6  C    0.566419   0.262010  -0.025049  -0.033132  -0.000007  -0.000010
     7  O    8.101085  -0.092479   0.002643  -0.004163   0.000001   0.000000
     8  N   -0.092479   7.015505   0.293479   0.298397   0.000002   0.000002
     9  C    0.002643   0.293479   4.803607  -0.051534  -0.000004  -0.000004
    10  C   -0.004163   0.298397  -0.051534   4.805635   0.000000   0.000000
    11  H    0.000001   0.000002  -0.000004   0.000000   0.542403  -0.023057
    12  H    0.000000   0.000002  -0.000004   0.000000  -0.023057   0.586314
    13  H    0.000004   0.000000  -0.000001   0.000000  -0.020858  -0.029684
    14  H    0.003391   0.006351  -0.003223  -0.000116   0.000004   0.000012
    15  H    0.003893   0.003637   0.000291  -0.000166   0.000002  -0.000007
    16  H    0.000018  -0.030861   0.381971   0.004764   0.000001   0.000003
    17  H   -0.000087  -0.042151   0.378837  -0.004361   0.000000   0.000000
    18  H    0.000125  -0.045716   0.382770  -0.001288   0.000004  -0.000006
    19  H    0.000793  -0.041854  -0.002912   0.378000   0.000000   0.000000
    20  H    0.016953  -0.034209   0.004687   0.386513   0.000000   0.000000
    21  H    0.001133  -0.046806  -0.001878   0.387817   0.000000   0.000000
    22  C   -0.000128  -0.000135   0.000055   0.000002   0.000349  -0.001021
    23  H    0.000003   0.000003  -0.000002   0.000000   0.000041  -0.002372
    24  H   -0.000024  -0.000005  -0.000006   0.000000  -0.000010   0.000207
    25  C    0.000000   0.000001   0.000003   0.000000   0.000010  -0.000118
    26  H    0.000000   0.000000  -0.000013   0.000000  -0.000037   0.003431
    27  H    0.000000   0.000006  -0.000042   0.000000   0.000001  -0.000093
    28  O    0.000000   0.000000   0.000000   0.000000   0.000000  -0.000064
    29  C    0.000000   0.000000   0.000000   0.000000   0.000000  -0.000004
    30  H    0.000000   0.000000   0.000000   0.000000   0.000000   0.000000
    31  H    0.000000   0.000000   0.000000   0.000000   0.000000   0.000000
    32  H    0.000000   0.000000   0.000000   0.000000   0.000000   0.000005
             13         14         15         16         17         18
     1  C    0.364704  -0.000195  -0.000138  -0.000036   0.000001   0.000080
     2  C   -0.022252   0.000443   0.002174   0.000404  -0.000019   0.000805
     3  O    0.000970   0.000459   0.000467  -0.001365   0.000311   0.006732
     4  N    0.002698  -0.051016  -0.039230   0.001035  -0.000010  -0.000352
     5  C   -0.000074   0.346625   0.369348   0.006242  -0.000365  -0.000273
     6  C   -0.000016  -0.027944  -0.021496  -0.007572   0.002666  -0.001683
     7  O    0.000004   0.003391   0.003893   0.000018  -0.000087   0.000125
     8  N    0.000000   0.006351   0.003637  -0.030861  -0.042151  -0.045716
     9  C   -0.000001  -0.003223   0.000291   0.381971   0.378837   0.382770
    10  C    0.000000  -0.000116  -0.000166   0.004764  -0.004361  -0.001288
    11  H   -0.020858   0.000004   0.000002   0.000001   0.000000   0.000004
    12  H   -0.029684   0.000012  -0.000007   0.000003   0.000000  -0.000006
    13  H    0.566167  -0.000005   0.000013   0.000000   0.000000   0.000000
    14  H   -0.000005   0.657694  -0.042976  -0.002042   0.000199   0.000434
    15  H    0.000013  -0.042976   0.584312   0.000311   0.000007  -0.000053
    16  H    0.000000  -0.002042   0.000311   0.603916  -0.028548  -0.034366
    17  H    0.000000   0.000199   0.000007  -0.028548   0.626639  -0.043320
    18  H    0.000000   0.000434  -0.000053  -0.034366  -0.043320   0.594746
    19  H    0.000000  -0.000029   0.000007   0.000158   0.005838  -0.001735
    20  H    0.000000  -0.000055  -0.000007  -0.000237   0.000149  -0.000240
    21  H    0.000000   0.000003  -0.000006  -0.000188  -0.001557   0.007152
    22  C   -0.003720   0.001468  -0.008069  -0.000217   0.000001  -0.000005
    23  H    0.002051  -0.000156   0.000603   0.000003   0.000000   0.000000
    24  H    0.000165  -0.002348   0.008028   0.000017   0.000000   0.000000
    25  C    0.000151   0.001644  -0.001080   0.000118  -0.000001   0.000001
    26  H    0.000055  -0.000138   0.000008   0.000070   0.000000   0.000000
    27  H   -0.000007   0.001807   0.000374   0.000296   0.000001  -0.000004
    28  O   -0.000005  -0.000096   0.000009   0.000000   0.000000   0.000000
    29  C    0.000000   0.000005  -0.000001   0.000000   0.000000   0.000000
    30  H    0.000000   0.000000   0.000000   0.000000   0.000000   0.000000
    31  H    0.000000   0.000001   0.000000   0.000000   0.000000   0.000000
    32  H    0.000000   0.000000   0.000000   0.000000   0.000000   0.000000
             19         20         21         22         23         24
     1  C    0.000000   0.000000   0.000003   0.001283   0.008008  -0.000206
     2  C   -0.000002  -0.000009   0.000015  -0.021241  -0.009336   0.002582
     3  O   -0.000008   0.000002   0.001187   0.002818   0.000089  -0.000087
     4  N    0.000000  -0.000002   0.000005   0.248360  -0.028833  -0.035235
     5  C   -0.000142   0.000662  -0.000137  -0.042263   0.003817  -0.002859
     6  C    0.004595  -0.004328  -0.001746   0.002344  -0.000094  -0.000010
     7  O    0.000793   0.016953   0.001133  -0.000128   0.000003  -0.000024
     8  N   -0.041854  -0.034209  -0.046806  -0.000135   0.000003  -0.000005
     9  C   -0.002912   0.004687  -0.001878   0.000055  -0.000002  -0.000006
    10  C    0.378000   0.386513   0.387817   0.000002   0.000000   0.000000
    11  H    0.000000   0.000000   0.000000   0.000349   0.000041  -0.000010
    12  H    0.000000   0.000000   0.000000  -0.001021  -0.002372   0.000207
    13  H    0.000000   0.000000   0.000000  -0.003720   0.002051   0.000165
    14  H   -0.000029  -0.000055   0.000003   0.001468  -0.000156  -0.002348
    15  H    0.000007  -0.000007  -0.000006  -0.008069   0.000603   0.008028
    16  H    0.000158  -0.000237  -0.000188  -0.000217   0.000003   0.000017
    17  H    0.005838   0.000149  -0.001557   0.000001   0.000000   0.000000
    18  H   -0.001735  -0.000240   0.007152  -0.000005   0.000000   0.000000
    19  H    0.626877  -0.023754  -0.043326   0.000000   0.000000   0.000000
    20  H   -0.023754   0.537136  -0.031217   0.000000   0.000000   0.000000
    21  H   -0.043326  -0.031217   0.606144   0.000000   0.000000   0.000000
    22  C    0.000000   0.000000   0.000000   4.907304   0.376796   0.375616
    23  H    0.000000   0.000000   0.000000   0.376796   0.589883  -0.029750
    24  H    0.000000   0.000000   0.000000   0.375616  -0.029750   0.602748
    25  C    0.000000   0.000000   0.000000   0.360980  -0.042624  -0.049469
    26  H    0.000000   0.000000   0.000000  -0.040462  -0.008705   0.006765
    27  H    0.000000   0.000000   0.000000  -0.040110   0.006504  -0.007884
    28  O    0.000000   0.000000   0.000000  -0.040088   0.005637   0.006266
    29  C    0.000000   0.000000   0.000000   0.004527  -0.000084  -0.000113
    30  H    0.000000   0.000000   0.000000  -0.000255   0.000008   0.000009
    31  H    0.000000   0.000000   0.000000   0.000032   0.000048  -0.000059
    32  H    0.000000   0.000000   0.000000   0.000016  -0.000069   0.000049
             25         26         27         28         29         30
     1  C   -0.001757  -0.000645   0.000099   0.000008   0.000000   0.000000
     2  C   -0.000834   0.002040  -0.000234   0.000010  -0.000002   0.000000
     3  O   -0.000003  -0.000065   0.000001   0.000000   0.000000   0.000000
     4  N   -0.055171   0.003316   0.001369   0.002143  -0.000130   0.000001
     5  C   -0.001964  -0.000034   0.001591  -0.000025   0.000001   0.000000
     6  C   -0.000019  -0.000009   0.000017   0.000000   0.000000   0.000000
     7  O    0.000000   0.000000   0.000000   0.000000   0.000000   0.000000
     8  N    0.000001   0.000000   0.000006   0.000000   0.000000   0.000000
     9  C    0.000003  -0.000013  -0.000042   0.000000   0.000000   0.000000
    10  C    0.000000   0.000000   0.000000   0.000000   0.000000   0.000000
    11  H    0.000010  -0.000037   0.000001   0.000000   0.000000   0.000000
    12  H   -0.000118   0.003431  -0.000093  -0.000064  -0.000004   0.000000
    13  H    0.000151   0.000055  -0.000007  -0.000005   0.000000   0.000000
    14  H    0.001644  -0.000138   0.001807  -0.000096   0.000005   0.000000
    15  H   -0.001080   0.000008   0.000374   0.000009  -0.000001   0.000000
    16  H    0.000118   0.000070   0.000296   0.000000   0.000000   0.000000
    17  H   -0.000001   0.000000   0.000001   0.000000   0.000000   0.000000
    18  H    0.000001   0.000000  -0.000004   0.000000   0.000000   0.000000
    19  H    0.000000   0.000000   0.000000   0.000000   0.000000   0.000000
    20  H    0.000000   0.000000   0.000000   0.000000   0.000000   0.000000
    21  H    0.000000   0.000000   0.000000   0.000000   0.000000   0.000000
    22  C    0.360980  -0.040462  -0.040110  -0.040088   0.004527  -0.000255
    23  H   -0.042624  -0.008705   0.006504   0.005637  -0.000084   0.000008
    24  H   -0.049469   0.006765  -0.007884   0.006266  -0.000113   0.000009
    25  C    4.786113   0.360161   0.364100   0.230904  -0.033697   0.005337
    26  H    0.360161   0.685610  -0.061179  -0.038808  -0.006053  -0.000109
    27  H    0.364100  -0.061179   0.683758  -0.038621  -0.006014  -0.000107
    28  O    0.230904  -0.038808  -0.038621   8.206068   0.257034  -0.032592
    29  C   -0.033697  -0.006053  -0.006014   0.257034   4.709139   0.395117
    30  H    0.005337  -0.000109  -0.000107  -0.032592   0.395117   0.580581
    31  H   -0.009184  -0.002668   0.013256  -0.037321   0.371056  -0.034309
    32  H   -0.009116   0.013099  -0.002704  -0.037382   0.371107  -0.034583
             31         32
     1  C    0.000000  -0.000001
     2  C    0.000000   0.000000
     3  O    0.000000   0.000000
     4  N    0.000010   0.000009
     5  C   -0.000002   0.000000
     6  C    0.000000   0.000000
     7  O    0.000000   0.000000
     8  N    0.000000   0.000000
     9  C    0.000000   0.000000
    10  C    0.000000   0.000000
    11  H    0.000000   0.000000
    12  H    0.000000   0.000005
    13  H    0.000000   0.000000
    14  H    0.000001   0.000000
    15  H    0.000000   0.000000
    16  H    0.000000   0.000000
    17  H    0.000000   0.000000
    18  H    0.000000   0.000000
    19  H    0.000000   0.000000
    20  H    0.000000   0.000000
    21  H    0.000000   0.000000
    22  C    0.000032   0.000016
    23  H    0.000048  -0.000069
    24  H   -0.000059   0.000049
    25  C   -0.009184  -0.009116
    26  H   -0.002668   0.013099
    27  H    0.013256  -0.002704
    28  O   -0.037321  -0.037382
    29  C    0.371056   0.371107
    30  H   -0.034309  -0.034583
    31  H    0.656268  -0.052029
    32  H   -0.052029   0.657055
 Mulliken atomic charges:
              1
     1  C   -0.406990
     2  C    0.578079
     3  O   -0.508359
     4  N   -0.450295
     5  C   -0.095728
     6  C    0.591838
     7  O   -0.519046
     8  N   -0.430018
     9  C   -0.163842
    10  C   -0.172135
    11  H    0.146323
    12  H    0.125066
    13  H    0.139641
    14  H    0.109799
    15  H    0.139744
    16  H    0.106102
    17  H    0.105769
    18  H    0.136197
    19  H    0.097494
    20  H    0.147957
    21  H    0.123402
    22  C   -0.084235
    23  H    0.128531
    24  H    0.125616
    25  C    0.095514
    26  H    0.084372
    27  H    0.083818
    28  O   -0.483076
    29  C   -0.061888
    30  H    0.120904
    31  H    0.094899
    32  H    0.094545
 Sum of Mulliken atomic charges =   0.00000
 Mulliken charges with hydrogens summed into heavy atoms:
              1
     1  C    0.004040
     2  C    0.578079
     3  O   -0.508359
     4  N   -0.450295
     5  C    0.153814
     6  C    0.591838
     7  O   -0.519046
     8  N   -0.430018
     9  C    0.184227
    10  C    0.196718
    22  C    0.169913
    25  C    0.263704
    28  O   -0.483076
    29  C    0.248460
 Sum of Mulliken charges with hydrogens summed into heavy atoms =   0.00000
 Electronic spatial extent (au):  <R**2>=           3875.6686
 Charge=              0.0000 electrons
 Dipole moment (field-independent basis, Debye):
    X=              4.0097    Y=             -2.0377    Z=             -2.8138  Tot=              5.3054
 Quadrupole moment (field-independent basis, Debye-Ang):
   XX=            -83.6597   YY=            -81.4875   ZZ=            -88.0718
   XY=              4.2375   XZ=              3.6139   YZ=              1.5685
 Traceless Quadrupole moment (field-independent basis, Debye-Ang):
   XX=              0.7467   YY=              2.9188   ZZ=             -3.6655
   XY=              4.2375   XZ=              3.6139   YZ=              1.5685
 Octapole moment (field-independent basis, Debye-Ang**2):
  XXX=             17.6216  YYY=              9.7575  ZZZ=             -5.5500  XYY=             14.1699
  XXY=            -28.4462  XXZ=            -38.0477  XZZ=             12.4004  YZZ=             -2.5568
  YYZ=              1.0537  XYZ=              0.5625
 Hexadecapole moment (field-independent basis, Debye-Ang**3):
 XXXX=          -3330.6065 YYYY=           -845.2009 ZZZZ=           -500.9337 XXXY=            -68.0400
 XXXZ=            -17.0448 YYYX=             -5.2836 YYYZ=              1.5532 ZZZX=             28.7174
 ZZZY=             -6.4944 XXYY=           -727.4731 XXZZ=           -718.9435 YYZZ=           -220.6806
 XXYZ=             17.8741 YYXZ=             -1.7026 ZZXY=              9.2439
 N-N= 9.720057444180D+02 E-N=-3.549808924449D+03  KE= 6.826141320609D+02
 Calling FoFJK, ICntrl=      2127 FMM=F ISym2X=0 I1Cent= 0 IOpClX= 0 NMat=1 NMatS=1 NMatT=0.
 ***** Axes restored to original set *****
 -------------------------------------------------------------------
 Center     Atomic                   Forces (Hartrees/Bohr)
 Number     Number              X              Y              Z
 -------------------------------------------------------------------
      1        6           0.000001447   -0.000001138    0.000002868
      2        6           0.000225031   -0.000701064   -0.001292620
      3        8          -0.000001700   -0.000000930    0.000004322
      4        7          -0.000326956    0.001268018    0.002504648
      5        6           0.000091509   -0.001031606   -0.002397515
      6        6           0.000000613    0.000466982    0.001175822
      7        8           0.000008920    0.000002268    0.000002402
      8        7           0.000002217   -0.000013729   -0.000000708
      9        6          -0.000007225    0.000002850    0.000006059
     10        6          -0.000002452    0.000000532   -0.000003533
     11        1          -0.000000924   -0.000000446   -0.000002193
     12        1          -0.000001253    0.000000911   -0.000001953
     13        1          -0.000001179    0.000000535   -0.000002350
     14        1           0.000001431   -0.000002548   -0.000000572
     15        1          -0.000003072    0.000002873    0.000001562
     16        1           0.000001274   -0.000002228    0.000001086
     17        1           0.000003488   -0.000002716    0.000003322
     18        1           0.000005796   -0.000000867   -0.000001017
     19        1           0.000001308   -0.000001497   -0.000001153
     20        1           0.000003712   -0.000000015   -0.000001334
     21        1          -0.000002938   -0.000001075   -0.000001697
     22        6          -0.000003930    0.000001129   -0.000003366
     23        1           0.000002375    0.000003946   -0.000001347
     24        1          -0.000000857    0.000002369    0.000000808
     25        6          -0.000001905    0.000000375   -0.000000070
     26        1           0.000000343   -0.000001141    0.000001392
     27        1           0.000001848    0.000001682    0.000000765
     28        8           0.000001550    0.000001551    0.000001377
     29        6           0.000000100    0.000002798    0.000000436
     30        1           0.000000025    0.000001301    0.000001750
     31        1           0.000001052    0.000000570    0.000001590
     32        1           0.000000351    0.000000309    0.000001217
 -------------------------------------------------------------------
 Cartesian Forces:  Max     0.002504648 RMS     0.000440443

 GradGradGradGradGradGradGradGradGradGradGradGradGradGradGradGradGradGrad
 Berny optimization.
 Internal  Forces:  Max     0.001233831 RMS     0.000166870
 Search for a local minimum.
 Step number   1 out of a maximum of  155 on scan point     1 out of    37
 All quantities printed in internal units (Hartrees-Bohrs-Radians)
 Mixed Optimization -- En-DIIS/RFO-DIIS
 Second derivative matrix not updated -- first step.
 ITU=  0
     Eigenvalues ---    0.00349   0.00448   0.00735   0.00877   0.00919
     Eigenvalues ---    0.00966   0.01033   0.01087   0.01513   0.01544
     Eigenvalues ---    0.01637   0.02004   0.02016   0.02470   0.04130
     Eigenvalues ---    0.05355   0.05499   0.05877   0.06285   0.06870
     Eigenvalues ---    0.07353   0.07456   0.07475   0.07513   0.07646
     Eigenvalues ---    0.09449   0.10039   0.10490   0.10512   0.11090
     Eigenvalues ---    0.11609   0.12902   0.13607   0.16000   0.16000
     Eigenvalues ---    0.16000   0.16000   0.16000   0.16000   0.16000
     Eigenvalues ---    0.16000   0.16000   0.16000   0.16000   0.16000
     Eigenvalues ---    0.21924   0.21950   0.22053   0.22098   0.23257
     Eigenvalues ---    0.24616   0.24920   0.24964   0.25000   0.25000
     Eigenvalues ---    0.25000   0.25000   0.28378   0.29282   0.29983
     Eigenvalues ---    0.33295   0.33326   0.33568   0.33570   0.33822
     Eigenvalues ---    0.34014   0.34074   0.34209   0.34235   0.34249
     Eigenvalues ---    0.34318   0.34352   0.34353   0.34567   0.34785
     Eigenvalues ---    0.34842   0.34904   0.34987   0.35442   0.36765
     Eigenvalues ---    0.37159   0.37614   0.43448   0.43819   0.49762
     Eigenvalues ---    0.49934   0.92333   0.932981000.000001000.00000
     Eigenvalues --- 1000.000001000.000001000.000001000.000001000.00000
     Eigenvalues --- 1000.000001000.000001000.000001000.000001000.00000
     Eigenvalues --- 1000.000001000.000001000.000001000.000001000.00000
     Eigenvalues --- 1000.000001000.000001000.000001000.000001000.00000
     Eigenvalues --- 1000.000001000.000001000.000001000.000001000.00000
     Eigenvalues --- 1000.000001000.000001000.000001000.000001000.00000
     Eigenvalues --- 1000.000001000.000001000.000001000.000001000.00000
     Eigenvalues --- 1000.000001000.000001000.000001000.000001000.00000
     Eigenvalues --- 1000.000001000.000001000.000001000.000001000.00000
     Eigenvalues --- 1000.000001000.000001000.000001000.000001000.00000
     Eigenvalues --- 1000.000001000.000001000.000001000.000001000.00000
 RFO step:  Lambda=-2.11389572D-08 EMin= 3.48748396D-03
 Linear search not attempted -- first point.
 Iteration  1 RMS(Cart)=  0.00038508 RMS(Int)=  0.00000005
 Iteration  2 RMS(Cart)=  0.00000007 RMS(Int)=  0.00000000
 Iteration  1 RMS(Cart)=  0.00000000 RMS(Int)=  0.00000000
 Variable       Old X    -DE/DX   Delta X   Delta X   Delta X     New X
                                 (Linear)    (Quad)   (Total)
    R1        2.87997   0.00000   0.00000   0.00000   0.00000   2.87997
    R2        2.05832   0.00000   0.00000   0.00000   0.00000   2.05832
    R3        2.06740   0.00000   0.00000   0.00000   0.00000   2.06740
    R4        2.06935   0.00000   0.00000   0.00000   0.00000   2.06935
    R5        2.31876   0.00000   0.00000   0.00000   0.00000   2.31876
    R6        2.60107  -0.00001   0.00000  -0.00002  -0.00002   2.60105
    R7        2.78263   0.00000   0.00000   0.00000   0.00000   2.78263
    R8        2.76203   0.00000   0.00000   0.00000   0.00000   2.76202
    R9        2.91321   0.00000   0.00000  -0.00001  -0.00001   2.91320
   R10        2.07205   0.00000   0.00000   0.00001   0.00001   2.07206
   R11        2.06739   0.00000   0.00000   0.00000   0.00000   2.06739
   R12        2.31449   0.00000   0.00000   0.00000   0.00000   2.31449
   R13        2.59932   0.00000   0.00000   0.00000   0.00000   2.59932
   R14        2.74930  -0.00001   0.00000  -0.00002  -0.00002   2.74928
   R15        2.75608   0.00000   0.00000   0.00000   0.00000   2.75608
   R16        2.05933   0.00000   0.00000   0.00000   0.00000   2.05933
   R17        2.06978   0.00000   0.00000   0.00000   0.00000   2.06978
   R18        2.07307   0.00000   0.00000   0.00000   0.00000   2.07307
   R19        2.06797   0.00000   0.00000   0.00000   0.00000   2.06797
   R20        2.05696   0.00000   0.00000  -0.00001  -0.00001   2.05695
   R21        2.07632   0.00000   0.00000   0.00000   0.00000   2.07633
   R22        2.06026   0.00000   0.00000   0.00001   0.00001   2.06027
   R23        2.06911   0.00000   0.00000   0.00000   0.00000   2.06911
   R24        2.89419   0.00000   0.00000   0.00000   0.00000   2.89419
   R25        2.08537   0.00000   0.00000   0.00000   0.00000   2.08536
   R26        2.08483   0.00000   0.00000   0.00000   0.00000   2.08483
   R27        2.66672   0.00000   0.00000   0.00000   0.00000   2.66672
   R28        2.67121   0.00000   0.00000   0.00000   0.00000   2.67121
   R29        2.06383   0.00000   0.00000   0.00000   0.00000   2.06383
   R30        2.08061   0.00000   0.00000   0.00000   0.00000   2.08061
   R31        2.08065   0.00000   0.00000   0.00000   0.00000   2.08065
    A1        1.86532   0.00000   0.00000  -0.00001  -0.00001   1.86531
    A2        1.96882   0.00000   0.00000   0.00000   0.00000   1.96882
    A3        1.94257   0.00000   0.00000   0.00001   0.00001   1.94258
    A4        1.90500   0.00000   0.00000  -0.00001  -0.00001   1.90498
    A5        1.89825   0.00000   0.00000   0.00000   0.00000   1.89825
    A6        1.88274   0.00000   0.00000   0.00000   0.00000   1.88274
    A7        2.09694   0.00000   0.00000   0.00001   0.00001   2.09695
    A8        2.05342   0.00000   0.00000   0.00000   0.00000   2.05342
    A9        2.13282   0.00000   0.00000  -0.00001  -0.00001   2.13281
   A10        2.12989  -0.00003   0.00000  -0.00004  -0.00004   2.12985
   A11        2.15225   0.00005   0.00000   0.00000   0.00000   2.15225
   A12        1.99906   0.00000   0.00000   0.00005   0.00005   1.99911
   A13        2.04665  -0.00001   0.00000  -0.00001  -0.00001   2.04664
   A14        1.91425   0.00004   0.00000   0.00002   0.00002   1.91427
   A15        1.87494  -0.00007   0.00000  -0.00001  -0.00001   1.87492
   A16        1.93396   0.00051   0.00000   0.00002   0.00002   1.93398
   A17        1.80966  -0.00054   0.00000  -0.00004  -0.00004   1.80963
   A18        1.87333   0.00002   0.00000   0.00001   0.00001   1.87334
   A19        2.06961   0.00000   0.00000   0.00000   0.00000   2.06961
   A20        2.05733  -0.00001   0.00000  -0.00003  -0.00003   2.05730
   A21        2.14173   0.00002   0.00000   0.00009   0.00009   2.14182
   A22        2.14625  -0.00001   0.00000  -0.00005  -0.00005   2.14620
   A23        2.02993   0.00001   0.00000   0.00003   0.00003   2.02996
   A24        1.99803   0.00000   0.00000   0.00001   0.00001   1.99804
   A25        1.94210   0.00000   0.00000  -0.00003  -0.00003   1.94206
   A26        1.90967   0.00000   0.00000  -0.00001  -0.00001   1.90966
   A27        1.93783   0.00001   0.00000   0.00004   0.00004   1.93787
   A28        1.88658   0.00000   0.00000  -0.00002  -0.00002   1.88655
   A29        1.88019   0.00000   0.00000  -0.00002  -0.00002   1.88017
   A30        1.90636   0.00000   0.00000   0.00004   0.00004   1.90640
   A31        1.90571   0.00000   0.00000  -0.00001  -0.00001   1.90571
   A32        1.90269   0.00000   0.00000  -0.00003  -0.00003   1.90266
   A33        1.94204   0.00000   0.00000   0.00003   0.00003   1.94207
   A34        1.92053   0.00000   0.00000   0.00002   0.00002   1.92054
   A35        1.90037   0.00000   0.00000  -0.00001  -0.00001   1.90036
   A36        1.89252   0.00000   0.00000   0.00000   0.00000   1.89252
   A37        1.93164   0.00000   0.00000   0.00000   0.00000   1.93164
   A38        1.89973   0.00000   0.00000   0.00000   0.00000   1.89973
   A39        1.97021   0.00000   0.00000   0.00001   0.00001   1.97022
   A40        1.86142   0.00000   0.00000   0.00000   0.00000   1.86142
   A41        1.90115   0.00000   0.00000  -0.00001  -0.00001   1.90114
   A42        1.89622   0.00000   0.00000   0.00000   0.00000   1.89622
   A43        1.92182   0.00000   0.00000   0.00001   0.00001   1.92183
   A44        1.92793   0.00000   0.00000   0.00001   0.00001   1.92794
   A45        1.87098   0.00000   0.00000   0.00000   0.00000   1.87098
   A46        1.86835   0.00000   0.00000   0.00000   0.00000   1.86835
   A47        1.93941   0.00000   0.00000   0.00000   0.00000   1.93941
   A48        1.93610   0.00000   0.00000   0.00000   0.00000   1.93609
   A49        1.97389   0.00000   0.00000   0.00000   0.00000   1.97389
   A50        1.87153   0.00000   0.00000   0.00000   0.00000   1.87153
   A51        1.95010   0.00000   0.00000   0.00000   0.00000   1.95010
   A52        1.95060   0.00000   0.00000   0.00000   0.00000   1.95060
   A53        1.90052   0.00000   0.00000  -0.00001  -0.00001   1.90052
   A54        1.90052   0.00000   0.00000   0.00000   0.00000   1.90052
   A55        1.88956   0.00000   0.00000   0.00000   0.00000   1.88956
    D1       -0.07457   0.00000   0.00000  -0.00006  -0.00006  -0.07463
    D2        3.06459   0.00000   0.00000   0.00014   0.00014   3.06473
    D3       -2.16825   0.00000   0.00000  -0.00004  -0.00004  -2.16830
    D4        0.97090   0.00000   0.00000   0.00016   0.00016   0.97106
    D5        1.99578   0.00000   0.00000  -0.00006  -0.00006   1.99572
    D6       -1.14825   0.00000   0.00000   0.00014   0.00014  -1.14811
    D7        3.01795   0.00021   0.00000   0.00006   0.00006   3.01801
    D8       -0.05219  -0.00021   0.00000  -0.00004  -0.00004  -0.05223
    D9       -0.12614   0.00021   0.00000   0.00027   0.00027  -0.12587
   D10        3.08691  -0.00021   0.00000   0.00017   0.00017   3.08708
   D11       -0.19775  -0.00123   0.00000   0.00000   0.00000  -0.19775
   D12        2.02750  -0.00049   0.00000   0.00004   0.00004   2.02753
   D13       -2.22496  -0.00049   0.00000   0.00006   0.00006  -2.22490
   D14        2.87822  -0.00085   0.00000   0.00009   0.00009   2.87831
   D15       -1.17972  -0.00010   0.00000   0.00013   0.00013  -1.17960
   D16        0.85101  -0.00010   0.00000   0.00015   0.00015   0.85116
   D17        0.44118   0.00019   0.00000  -0.00010  -0.00010   0.44108
   D18        2.48147   0.00019   0.00000  -0.00010  -0.00010   2.48136
   D19       -1.69486   0.00019   0.00000  -0.00010  -0.00010  -1.69495
   D20       -2.63384  -0.00020   0.00000  -0.00019  -0.00019  -2.63403
   D21       -0.59355  -0.00020   0.00000  -0.00019  -0.00019  -0.59374
   D22        1.51331  -0.00020   0.00000  -0.00019  -0.00019   1.51312
   D23       -1.56532   0.00034   0.00000   0.00042   0.00042  -1.56490
   D24        1.75351   0.00034   0.00000   0.00000   0.00000   1.75351
   D25        2.50220  -0.00018   0.00000   0.00038   0.00038   2.50257
   D26       -0.46217  -0.00019   0.00000  -0.00004  -0.00004  -0.46220
   D27        0.49731  -0.00014   0.00000   0.00037   0.00037   0.49769
   D28       -2.46705  -0.00014   0.00000  -0.00005  -0.00005  -2.46709
   D29       -0.54317   0.00001   0.00000   0.00046   0.00046  -0.54271
   D30        3.11064   0.00000   0.00000   0.00047   0.00047   3.11111
   D31        2.78348   0.00001   0.00000   0.00003   0.00003   2.78352
   D32        0.15411   0.00000   0.00000   0.00005   0.00005   0.15415
   D33        0.56755   0.00000   0.00000   0.00009   0.00009   0.56764
   D34        2.65112   0.00000   0.00000   0.00004   0.00004   2.65116
   D35       -1.52656   0.00000   0.00000   0.00011   0.00011  -1.52646
   D36       -3.07783   0.00000   0.00000   0.00008   0.00008  -3.07775
   D37       -0.99426   0.00000   0.00000   0.00003   0.00003  -0.99423
   D38        1.11124   0.00000   0.00000   0.00010   0.00010   1.11134
   D39       -2.69497   0.00000   0.00000   0.00002   0.00002  -2.69495
   D40       -0.59631   0.00000   0.00000   0.00002   0.00002  -0.59630
   D41        1.49010   0.00000   0.00000   0.00001   0.00001   1.49012
   D42        0.91539   0.00000   0.00000   0.00005   0.00005   0.91544
   D43        3.01404   0.00000   0.00000   0.00005   0.00005   3.01410
   D44       -1.18272   0.00000   0.00000   0.00005   0.00005  -1.18268
   D45        1.07296   0.00000   0.00000  -0.00005  -0.00005   1.07291
   D46       -0.98700   0.00000   0.00000  -0.00005  -0.00005  -0.98705
   D47       -3.09838   0.00000   0.00000  -0.00005  -0.00005  -3.09843
   D48       -1.08005   0.00000   0.00000  -0.00006  -0.00006  -1.08011
   D49       -3.14001   0.00000   0.00000  -0.00006  -0.00006  -3.14008
   D50        1.03179   0.00000   0.00000  -0.00006  -0.00006   1.03173
   D51       -3.10135   0.00000   0.00000  -0.00005  -0.00005  -3.10140
   D52        1.12187   0.00000   0.00000  -0.00005  -0.00005   1.12182
   D53       -0.98951   0.00000   0.00000  -0.00005  -0.00005  -0.98956
   D54        3.13737   0.00000   0.00000   0.00000   0.00000   3.13737
   D55       -1.04512   0.00000   0.00000   0.00000   0.00000  -1.04511
   D56        1.03116   0.00000   0.00000  -0.00001  -0.00001   1.03116
   D57       -3.13859   0.00000   0.00000   0.00001   0.00001  -3.13858
   D58       -1.05735   0.00000   0.00000   0.00000   0.00000  -1.05735
   D59        1.06308   0.00000   0.00000   0.00000   0.00000   1.06309
         Item               Value     Threshold  Converged?
 Maximum Force            0.000017     0.000450     YES
 RMS     Force            0.000003     0.000300     YES
 Maximum Displacement     0.001625     0.001800     YES
 RMS     Displacement     0.000385     0.001200     YES
 Predicted change in Energy=-1.056865D-08
 Optimization completed.
    -- Stationary point found.
                           ----------------------------
                           !   Optimized Parameters   !
                           ! (Angstroms and Degrees)  !
 --------------------------                            --------------------------
 ! Name  Definition              Value          Derivative Info.                !
 --------------------------------------------------------------------------------
 ! R1    R(1,2)                  1.524          -DE/DX =    0.0                 !
 ! R2    R(1,11)                 1.0892         -DE/DX =    0.0                 !
 ! R3    R(1,12)                 1.094          -DE/DX =    0.0                 !
 ! R4    R(1,13)                 1.0951         -DE/DX =    0.0                 !
 ! R5    R(2,3)                  1.227          -DE/DX =    0.0                 !
 ! R6    R(2,4)                  1.3764         -DE/DX =    0.0                 !
 ! R7    R(4,5)                  1.4725         -DE/DX =    0.0                 !
 ! R8    R(4,22)                 1.4616         -DE/DX =    0.0                 !
 ! R9    R(5,6)                  1.5416         -DE/DX =    0.0                 !
 ! R10   R(5,14)                 1.0965         -DE/DX =    0.0                 !
 ! R11   R(5,15)                 1.094          -DE/DX =    0.0                 !
 ! R12   R(6,7)                  1.2248         -DE/DX =    0.0                 !
 ! R13   R(6,8)                  1.3755         -DE/DX =    0.0                 !
 ! R14   R(8,9)                  1.4549         -DE/DX =    0.0                 !
 ! R15   R(8,10)                 1.4585         -DE/DX =    0.0                 !
 ! R16   R(9,16)                 1.0898         -DE/DX =    0.0                 !
 ! R17   R(9,17)                 1.0953         -DE/DX =    0.0                 !
 ! R18   R(9,18)                 1.097          -DE/DX =    0.0                 !
 ! R19   R(10,19)                1.0943         -DE/DX =    0.0                 !
 ! R20   R(10,20)                1.0885         -DE/DX =    0.0                 !
 ! R21   R(10,21)                1.0987         -DE/DX =    0.0                 !
 ! R22   R(22,23)                1.0902         -DE/DX =    0.0                 !
 ! R23   R(22,24)                1.0949         -DE/DX =    0.0                 !
 ! R24   R(22,25)                1.5315         -DE/DX =    0.0                 !
 ! R25   R(25,26)                1.1035         -DE/DX =    0.0                 !
 ! R26   R(25,27)                1.1032         -DE/DX =    0.0                 !
 ! R27   R(25,28)                1.4112         -DE/DX =    0.0                 !
 ! R28   R(28,29)                1.4135         -DE/DX =    0.0                 !
 ! R29   R(29,30)                1.0921         -DE/DX =    0.0                 !
 ! R30   R(29,31)                1.101          -DE/DX =    0.0                 !
 ! R31   R(29,32)                1.101          -DE/DX =    0.0                 !
 ! A1    A(2,1,11)             106.875          -DE/DX =    0.0                 !
 ! A2    A(2,1,12)             112.8049         -DE/DX =    0.0                 !
 ! A3    A(2,1,13)             111.301          -DE/DX =    0.0                 !
 ! A4    A(11,1,12)            109.1482         -DE/DX =    0.0                 !
 ! A5    A(11,1,13)            108.7619         -DE/DX =    0.0                 !
 ! A6    A(12,1,13)            107.8731         -DE/DX =    0.0                 !
 ! A7    A(1,2,3)              120.1459         -DE/DX =    0.0                 !
 ! A8    A(1,2,4)              117.6523         -DE/DX =    0.0                 !
 ! A9    A(3,2,4)              122.2016         -DE/DX =    0.0                 !
 ! A10   A(2,4,5)              122.0335         -DE/DX =    0.0                 !
 ! A11   A(2,4,22)             123.3149         -DE/DX =    0.0                 !
 ! A12   A(5,4,22)             114.5377         -DE/DX =    0.0                 !
 ! A13   A(4,5,6)              117.2642         -DE/DX =    0.0                 !
 ! A14   A(4,5,14)             109.6784         -DE/DX =    0.0                 !
 ! A15   A(4,5,15)             107.4259         -DE/DX =   -0.0001              !
 ! A16   A(6,5,14)             110.8077         -DE/DX =    0.0005              !
 ! A17   A(6,5,15)             103.686          -DE/DX =   -0.0005              !
[...]
   D22        1.27254  -0.00240   0.00000  -0.00799  -0.00801   1.26453
   D23       -0.58859  -0.00472   0.00000   0.08323   0.08311  -0.50549
   D24        2.97524  -0.01387   0.00000   0.00000   0.00000   2.97524
   D25       -2.90435   0.00108   0.00000   0.16183   0.16189  -2.74246
   D26        0.65948  -0.00807   0.00000   0.07859   0.07879   0.73827
   D27        1.39085   0.00404   0.00000   0.16916   0.16892   1.55977
   D28       -1.32850  -0.00511   0.00000   0.08592   0.08582  -1.24269
   D29       -0.72113   0.00324   0.00000   0.08160   0.08194  -0.63920
   D30        2.85423   0.00338   0.00000   0.05656   0.05684   2.91107
   D31        2.83645  -0.00359   0.00000   0.00384   0.00356   2.84001
   D32        0.12862  -0.00345   0.00000  -0.02120  -0.02154   0.10709
   D33        0.34079  -0.00013   0.00000  -0.00350  -0.00351   0.33728
   D34        2.43863  -0.00032   0.00000  -0.00789  -0.00790   2.43074
   D35       -1.76119  -0.00022   0.00000  -0.00963  -0.00964  -1.77083
   D36        3.05934   0.00030   0.00000   0.02167   0.02168   3.08102
   D37       -1.12600   0.00012   0.00000   0.01728   0.01729  -1.10871
   D38        0.95736   0.00021   0.00000   0.01554   0.01555   0.97291
   D39       -2.63189  -0.00038   0.00000   0.01766   0.01764  -2.61424
   D40       -0.53360  -0.00041   0.00000   0.01700   0.01698  -0.51663
   D41        1.55864  -0.00022   0.00000   0.01824   0.01822   1.57686
   D42        0.89197   0.00009   0.00000  -0.00609  -0.00608   0.88590
   D43        2.99025   0.00005   0.00000  -0.00676  -0.00674   2.98351
   D44       -1.20069   0.00025   0.00000  -0.00552  -0.00550  -1.20619
   D45        0.98747   0.00002   0.00000  -0.00402  -0.00402   0.98344
   D46       -1.07899   0.00007   0.00000  -0.00365  -0.00365  -1.08264
   D47        3.09625   0.00006   0.00000  -0.00372  -0.00372   3.09253
   D48       -1.11704  -0.00007   0.00000  -0.00215  -0.00215  -1.11919
   D49        3.09969  -0.00002   0.00000  -0.00178  -0.00178   3.09791
   D50        0.99175  -0.00003   0.00000  -0.00184  -0.00184   0.98990
   D51       -3.13599  -0.00001   0.00000   0.00006   0.00006  -3.13593
   D52        1.08074   0.00004   0.00000   0.00043   0.00043   1.08117
   D53       -1.02720   0.00003   0.00000   0.00037   0.00037  -1.02684
   D54        3.14058   0.00002   0.00000   0.00063   0.00063   3.14121
   D55       -1.05441   0.00000   0.00000  -0.00084  -0.00084  -1.05525
   D56        1.02390   0.00001   0.00000  -0.00057  -0.00057   1.02332
   D57        3.14042   0.00001   0.00000  -0.00232  -0.00232   3.13810
   D58       -1.06171   0.00001   0.00000  -0.00216  -0.00216  -1.06387
   D59        1.05850   0.00000   0.00000  -0.00280  -0.00280   1.05570
         Item               Value     Threshold  Converged?
 Maximum Force            0.006966     0.000450     NO 
 RMS     Force            0.001494     0.000300     NO 
 Maximum Displacement     0.256517     0.001800     NO 
 RMS     Displacement     0.066682     0.001200     NO 
 Predicted change in Energy=-1.837431D-03
 GradGradGradGradGradGradGradGradGradGradGradGradGradGradGradGradGradGrad

                          Input orientation:                          
 ---------------------------------------------------------------------
 Center     Atomic      Atomic             Coordinates (Angstroms)
 Number     Number       Type             X           Y           Z
 ---------------------------------------------------------------------
      1          6           0        0.884223    3.202641    0.440055
      2          6           0        0.174255    2.134507   -0.381442
      3          8           0       -0.687452    2.440123   -1.185281
      4          7           0        0.601665    0.800574   -0.259967
      5          6           0       -0.351913   -0.313602   -0.273300
      6          6           0       -1.852905    0.020063   -0.156468
      7          8           0       -2.229886    1.016052    0.442880
      8          7           0       -2.720936   -1.037602   -0.379337
      9          6           0       -2.536985   -2.105977   -1.355616
     10          6           0       -4.114523   -0.835720    0.010420
     11          1           0        0.298747    4.115403    0.333020
     12          1           0        1.894727    3.400568    0.067137
     13          1           0        0.957839    2.936843    1.498670
     14          1           0       -0.152168   -0.960287   -1.132379
     15          1           0       -0.158915   -0.924763    0.619915
     16          1           0       -1.500143   -2.193192   -1.671855
     17          1           0       -2.839539   -3.064784   -0.919166
     18          1           0       -3.151825   -1.932086   -2.249561
     19          1           0       -4.543808   -1.800421    0.298616
     20          1           0       -4.152032   -0.143264    0.848696
     21          1           0       -4.711174   -0.419400   -0.812560
     22          6           0        1.829336    0.475379    0.467838
     23          1           0        2.419597    1.376524    0.623589
     24          1           0        1.613999    0.050936    1.460640
     25          6           0        2.710531   -0.504736   -0.310107
     26          1           0        2.936134   -0.084716   -1.304389
     27          1           0        2.195591   -1.467044   -0.470423
     28          8           0        3.887690   -0.695285    0.448635
     29          6           0        4.797839   -1.587171   -0.160276
     30          1           0        5.667363   -1.663106    0.496611
     31          1           0        4.361959   -2.590344   -0.290359
     32          1           0        5.127168   -1.225179   -1.146657
 ---------------------------------------------------------------------
                    Distance matrix (angstroms):
                    1          2          3          4          5
     1  C    0.000000
     2  C    1.523096   0.000000
     3  O    2.386067   1.217414   0.000000
     4  N    2.517895   1.405992   2.281698   0.000000
     5  C    3.794848   2.506349   2.920153   1.466587   0.000000
     6  C    4.239872   2.937833   2.876356   2.577755   1.542063
     7  O    3.805109   2.776750   2.656687   2.925424   2.409912
     8  N    5.625677   4.294696   4.108427   3.799055   2.479454
     9  C    6.565860   5.126552   4.910887   4.415836   3.026310
    10  C    6.440529   5.231579   4.889342   4.999299   3.809244
    11  H    1.089667   2.109480   2.466656   3.381048   4.517418
    12  H    1.095153   2.182695   3.026327   2.922153   4.354119
    13  H    1.093953   2.189193   3.187052   2.789858   3.926922
    14  H    4.569095   3.201283   3.442690   2.104756   1.093671
    15  H    4.260979   3.236178   3.854937   2.080736   1.099363
    16  H    6.265811   4.816405   4.729147   3.920926   2.609071
    17  H    7.415828   6.033633   5.916611   5.217032   3.764894
    18  H    7.063225   5.575828   5.130501   5.051198   3.790067
    19  H    7.383370   6.181121   5.920781   5.792502   4.484384
    20  H    6.060192   5.041650   4.776428   4.971680   3.965955
    21  H    6.782086   5.529531   4.950366   5.479046   4.393762
    22  C    2.886514   2.492644   3.595447   1.463772   2.435082
    23  H    2.392856   2.574138   3.749267   2.101729   3.367818
    24  H    3.392257   3.131676   4.243323   2.132432   2.646554
    25  C    4.200332   3.661064   4.580875   2.480658   3.068624
    26  H    4.249722   3.661251   4.418073   2.706344   3.453518
    27  H    4.935039   4.130967   4.908045   2.779745   2.803402
    28  O    4.920845   4.741978   5.782075   3.679358   4.317535
    29  C    6.214426   5.939473   6.881726   4.828990   5.306100
    30  H    6.823277   6.735508   7.749123   5.683610   6.216559
    31  H    6.796089   6.314220   7.183525   5.063503   5.234925
    32  H    6.334495   6.033606   6.873554   5.036872   5.622638
                    6          7          8          9         10
     6  C    0.000000
     7  O    1.222018   0.000000
     8  N    1.386291   2.265981   0.000000
     9  C    2.534949   3.616070   1.458898   0.000000
    10  C    2.423867   2.677301   1.461079   2.442996   0.000000
    11  H    4.651991   4.001503   6.014932   7.042616   6.640380
    12  H    5.051986   4.779072   6.418804   7.210155   7.352580
    13  H    4.375771   3.868555   5.732060   6.766888   6.494303
    14  H    2.192257   3.271738   2.677988   2.655144   4.125744
    15  H    2.089274   2.843770   2.752306   3.309563   4.003280
    16  H    2.705427   3.912018   2.120455   1.087499   3.392309
    17  H    3.327376   4.345120   2.101178   1.096056   2.731014
    18  H    3.143106   4.097649   2.117429   1.098819   2.690040
    19  H    3.280583   3.647954   2.089109   2.618623   1.094528
    20  H    2.514561   2.281085   2.087090   3.364463   1.087939
    21  H    2.965347   3.129447   2.128592   2.804737   1.098458
    22  C    3.762442   4.095147   4.869475   5.390097   6.103906
    23  H    4.550027   4.666935   5.767056   6.372814   6.925657
    24  H    3.825626   4.091789   4.833435   5.460242   5.975388
    25  C    4.596082   5.223745   5.457983   5.585113   6.840589
    26  H    4.925808   5.563488   5.810865   5.834650   7.211414
    27  H    4.324392   5.156039   4.936086   4.856858   6.359820
    28  O    5.816554   6.352436   6.669082   6.820691   8.015433
    29  C    6.842193   7.518610   7.542015   7.449674   8.945614
    30  H    7.733950   8.339503   8.457073   8.422482   9.828847
    31  H    6.742157   7.549580   7.251643   6.997486   8.661404
    32  H    7.159086   7.853406   7.887757   7.717429   9.321983
                   11         12         13         14         15
    11  H    0.000000
    12  H    1.768851   0.000000
    13  H    1.783857   1.772593   0.000000
    14  H    5.302203   4.964442   4.831372   0.000000
    15  H    5.069027   4.819906   4.114772   1.752667   0.000000
    16  H    6.859585   6.770480   6.512386   1.904764   2.942791
    17  H    7.935483   8.073837   7.502368   3.419989   3.759549
    18  H    7.426190   7.698830   7.392228   3.345210   4.266861
    19  H    7.645162   8.280012   7.358663   4.694685   4.483001
    20  H    6.181553   7.052154   6.001692   4.537742   4.075300
    21  H    6.853911   7.681402   6.981680   4.602106   4.799004
    22  C    3.951032   2.953230   2.807298   2.923729   2.436527
    23  H    3.476190   2.163766   2.310217   3.893338   3.456104
    24  H    4.418293   3.638776   2.959806   3.296312   2.191354
    25  C    5.251286   4.007399   4.264747   3.013090   3.045502
    26  H    5.222827   3.887521   4.571718   3.214626   3.740046
    27  H    5.950400   4.906439   4.980319   2.491377   2.650774
    28  O    6.003050   4.570936   4.783195   4.346296   4.056724
    29  C    7.280421   5.775580   6.161527   5.083359   5.061313
    30  H    7.889231   6.329141   6.659074   6.083954   5.874169
    31  H    7.865453   6.488919   6.733384   4.872723   4.903168
    32  H    7.350165   5.772306   6.457824   5.285997   5.581550
                   16         17         18         19         20
    16  H    0.000000
    17  H    1.766407   0.000000
    18  H    1.769173   1.774958   0.000000
    19  H    3.647043   2.446659   2.906571   0.000000
    20  H    4.193794   3.658313   3.714767   1.789482   0.000000
    21  H    3.767685   3.242289   2.604757   1.780434   1.774447
    22  C    4.773363   6.021207   6.163774   6.769406   6.025324
    23  H    5.777222   7.054347   7.088204   7.660783   6.748832
    24  H    4.954445   5.933396   6.356969   6.534249   5.801664
    25  C    4.736562   6.142319   6.337668   7.394240   6.969094
    26  H    4.925572   6.510576   6.431903   7.839821   7.408191
    27  H    3.953375   5.301573   5.654772   6.791322   6.617007
    28  O    5.980715   7.262301   7.639681   8.504939   8.068576
    29  C    6.505130   7.815933   8.226861   9.355342   9.121573
    30  H    7.507088   8.737076   9.240773  10.214013   9.942555
    31  H    6.035769   7.244451   7.792864   8.960109   8.931612
    32  H    6.718194   8.179506   8.381996   9.795279   9.552776
                   21         22         23         24         25
    21  H    0.000000
    22  C    6.724456   0.000000
    23  H    7.492380   1.088452   0.000000
    24  H    6.737690   1.100989   1.762619   0.000000
    25  C    7.439183   1.530467   2.120275   2.155621   0.000000
    26  H    7.670412   2.163215   2.473687   3.067870   1.102683
    27  H    6.994141   2.188033   3.054983   2.524187   1.103133
    28  O    8.695239   2.368047   2.545250   2.598206   1.413400
    29  C    9.602629   3.668877   3.879944   3.930344   2.356050
    30  H   10.534455   4.393677   4.450107   4.505225   3.276502
    31  H    9.343845   4.048173   4.510445   4.194478   2.660332
    32  H    9.876937   4.046504   4.151334   4.557283   2.656876
                   26         27         28         29         30
    26  H    0.000000
    27  H    1.776157   0.000000
    28  O    2.085988   2.074484   0.000000
    29  C    2.651851   2.623418   1.412305   0.000000
    30  H    3.632427   3.609266   2.026379   1.092400   0.000000
    31  H    3.056044   2.446912   2.088610   1.101485   1.784144
    32  H    2.475110   3.018267   2.088552   1.101110   1.784354
                   31         32
    31  H    0.000000
    32  H    1.783947   0.000000
 Stoichiometry    C9H18N2O3
 Framework group  C1[X(C9H18N2O3)]
 Deg. of freedom    90
 Full point group                 C1      NOp   1
 Largest Abelian subgroup         C1      NOp   1
 Largest concise Abelian subgroup C1      NOp   1
                         Standard orientation:                         
 ---------------------------------------------------------------------
 Center     Atomic      Atomic             Coordinates (Angstroms)
 Number     Number       Type             X           Y           Z
 ---------------------------------------------------------------------
      1          6           0        0.889206    3.083702    0.231870
      2          6           0        0.111739    1.946398   -0.417672
      3          8           0       -0.797186    2.179248   -1.193387
      4          7           0        0.528016    0.625414   -0.175749
      5          6           0       -0.439469   -0.463172   -0.003029
      6          6           0       -1.924694   -0.087249    0.172316
      7          8           0       -2.247411    0.976587    0.679696
      8          7           0       -2.819969   -1.144645    0.125422
      9          6           0       -2.715854   -2.318040   -0.735210
     10          6           0       -4.181715   -0.871740    0.579210
     11          1           0        0.310433    3.991101    0.061505
     12          1           0        1.875327    3.217958   -0.225188
     13          1           0        1.029313    2.935107    1.306589
     14          1           0       -0.306055   -1.204928   -0.795567
     15          1           0       -0.195952   -0.975727    0.938557
     16          1           0       -1.703586   -2.461401   -1.105907
     17          1           0       -3.001826   -3.216153   -0.175791
     18          1           0       -3.386262   -2.231216   -1.601477
     19          1           0       -4.604050   -1.789447    1.000443
     20          1           0       -4.154022   -0.090204    1.335547
     21          1           0       -4.825953   -0.536560   -0.244940
     22          6           0        1.796747    0.357032    0.503162
     23          1           0        2.408298    1.257301    0.518890
     24          1           0        1.642030    0.049578    1.548969
     25          6           0        2.610878   -0.721347   -0.215601
     26          1           0        2.775678   -0.418667   -1.263044
     27          1           0        2.073336   -1.684476   -0.233881
     28          8           0        3.833106   -0.851460    0.482202
     29          6           0        4.688551   -1.824086   -0.080662
     30          1           0        5.598654   -1.845127    0.523166
     31          1           0        4.231338   -2.826134   -0.069492
     32          1           0        4.956572   -1.580366   -1.120474
 ---------------------------------------------------------------------
 Rotational constants (GHZ):      0.9046911      0.3525518      0.2721154
 Standard basis: 6-31G(d,p) (6D, 7F)
 There are   300 symmetry adapted basis functions of A   symmetry.
 Integral buffers will be    131072 words long.
 Raffenetti 2 integral format.
 Two-electron integral symmetry is turned on.
   300 basis functions,   518 primitive gaussians,   300 cartesian basis functions
    55 alpha electrons       55 beta electrons
       nuclear repulsion energy       954.7864544960 Hartrees.
 NAtoms=   32 NActive=   32 NUniq=   32 SFac= 1.00D+00 NAtFMM=   60 NAOKFM=F Big=F
 One-electron integrals computed using PRISM.
 NBasis=   300 RedAO= T  NBF=   300
 NBsUse=   300 1.00D-06 NBFU=   300
 Initial guess read from the read-write file.
 B after Tr=     0.000000    0.000000    0.000000
         Rot=    1.000000    0.000000    0.000000    0.000000 Ang=   0.00 deg.
 Initial guess orbital symmetries:
       Occupied  (A) (A) (A) (A) (A) (A) (A) (A) (A) (A) (A) (A)
                 (A) (A) (A) (A) (A) (A) (A) (A) (A) (A) (A) (A)
                 (A) (A) (A) (A) (A) (A) (A) (A) (A) (A) (A) (A)
                 (A) (A) (A) (A) (A) (A) (A) (A) (A) (A) (A) (A)
                 (A) (A) (A) (A) (A) (A) (A)
       Virtual   (A) (A) (A) (A) (A) (A) (A) (A) (A) (A) (A) (A)
                 (A) (A) (A) (A) (A) (A) (A) (A) (A) (A) (A) (A)
                 (A) (A) (A) (A) (A) (A) (A) (A) (A) (A) (A) (A)
                 (A) (A) (A) (A) (A) (A) (A) (A) (A) (A) (A) (A)
                 (A) (A) (A) (A) (A) (A) (A) (A) (A) (A) (A) (A)
                 (A) (A) (A) (A) (A) (A) (A) (A) (A) (A) (A) (A)
                 (A) (A) (A) (A) (A) (A) (A) (A) (A) (A) (A) (A)
                 (A) (A) (A) (A) (A) (A) (A) (A) (A) (A) (A) (A)
                 (A) (A) (A) (A) (A) (A) (A) (A) (A) (A) (A) (A)
                 (A) (A) (A) (A) (A) (A) (A) (A) (A) (A) (A) (A)
                 (A) (A) (A) (A) (A) (A) (A) (A) (A) (A) (A) (A)
                 (A) (A) (A) (A) (A) (A) (A) (A) (A) (A) (A) (A)
                 (A) (A) (A) (A) (A) (A) (A) (A) (A) (A) (A) (A)
                 (A) (A) (A) (A) (A) (A) (A) (A) (A) (A) (A) (A)
                 (A) (A) (A) (A) (A) (A) (A) (A) (A) (A) (A) (A)
                 (A) (A) (A) (A) (A) (A) (A) (A) (A) (A) (A) (A)
                 (A) (A) (A) (A) (A) (A) (A) (A) (A) (A) (A) (A)
                 (A) (A) (A) (A) (A) (A) (A) (A) (A) (A) (A) (A)
                 (A) (A) (A) (A) (A) (A) (A) (A) (A) (A) (A) (A)
                 (A) (A) (A) (A) (A) (A) (A) (A) (A) (A) (A) (A)
                 (A) (A) (A) (A) (A)
 Harris functional with IExCor=  402 diagonalized for initial guess.
 ExpMin= 1.61D-01 ExpMax= 5.48D+03 ExpMxC= 8.25D+02 IAcc=1 IRadAn=         1 AccDes= 0.00D+00
 HarFok:  IExCor=  402 AccDes= 0.00D+00 IRadAn=         1 IDoV= 1
 ScaDFX=  1.000000  1.000000  1.000000  1.000000
 FoFCou: FMM=F IPFlag=           0 FMFlag=      100000 FMFlg1=           0
         NFxFlg=           0 DoJE=T BraDBF=F KetDBF=T FulRan=T
         Omega=  0.000000  0.000000  1.000000  0.000000  0.000000 ICntrl=     500 IOpCl=  0
         NMat0=    1 NMatS0=    1 NMatT0=    0 NMatD0=    1 NMtDS0=    0 NMtDT0=    0
         I1Cent=           4 NGrid=           0.
 Petite list used in FoFCou.
 Requested convergence on RMS density matrix=1.00D-08 within 128 cycles.
 Requested convergence on MAX density matrix=1.00D-06.
 Requested convergence on             energy=1.00D-06.
 No special actions if energy rises.
 Keep R1 ints in memory in canonical form, NReq=1033484811.
 Integral accuracy reduced to 1.0D-05 until final iterations.
 Initial convergence to 1.0D-05 achieved.  Increase integral accuracy.
