 Entering Gaussian System, Link 0=/data/opt/apps/g09-C01/g09
 Initial command:
 /data/opt/apps/g09-C01/l1.exe /tmp/g09-tuu61186-1178320c21e64fea8x/Gau-1178462.inp -scrdir=/tmp/g09-tuu61186-1178320c21e64fea8x/
 Entering Link 1 = /data/opt/apps/g09-C01/l1.exe PID=   1178470.
  
 Copyright (c) 1988,1990,1992,1993,1995,1998,2003,2009,2011,
            Gaussian, Inc.  All Rights Reserved.
  
 This is part of the Gaussian(R) 09 program.  It is based on
 the Gaussian(R) 03 system (copyright 2003, Gaussian, Inc.),
 the Gaussian(R) 98 system (copyright 1998, Gaussian, Inc.),
 the Gaussian(R) 94 system (copyright 1995, Gaussian, Inc.),
 the Gaussian 92(TM) system (copyright 1992, Gaussian, Inc.),
 the Gaussian 90(TM) system (copyright 1990, Gaussian, Inc.),
 the Gaussian 88(TM) system (copyright 1988, Gaussian, Inc.),
 the Gaussian 86(TM) system (copyright 1986, Carnegie Mellon
 University), and the Gaussian 82(TM) system (copyright 1983,
 Carnegie Mellon University). Gaussian is a federally registered
 trademark of Gaussian, Inc.
  
 This software contains proprietary and confidential information,
 including trade secrets, belonging to Gaussian, Inc.
  
 This software is provided under written license and may be
 used, copied, transmitted, or stored only in accord with that
 written license.
  
 The following legend is applicable only to US Government
 contracts under FAR:
  
                    RESTRICTED RIGHTS LEGEND
  
 Use, reproduction and disclosure by the US Government is
 subject to restrictions as set forth in subparagraphs (a)
 and (c) of the Commercial Computer Software - Restricted
 Rights clause in FAR 52.227-19.
  
 Gaussian, Inc.
 340 Quinnipiac St., Bldg. 40, Wallingford CT 06492
  
  
 ---------------------------------------------------------------
 Warning -- This program may not be used in any manner that
 competes with the business of Gaussian, Inc. or will provide
 assistance to any competitor of Gaussian, Inc.  The licensee
 of this program is prohibited from giving any competitor of
 Gaussian, Inc. access to this program.  By using this program,
 the user acknowledges that Gaussian, Inc. is engaged in the
 business of creating and licensing software in the field of
 computational chemistry and represents and warrants to the
 licensee that it is not a competitor of Gaussian, Inc. and that
 it will not use this program in any manner prohibited above.
 ---------------------------------------------------------------
  

 Cite this work as:
 Gaussian 09, Revision C.01,
 M. J. Frisch, G. W. Trucks, H. B. Schlegel, G. E. Scuseria, 
 M. A. Robb, J. R. Cheeseman, G. Scalmani, V. Barone, B. Mennucci, 
 G. A. Petersson, H. Nakatsuji, M. Caricato, X. Li, H. P. Hratchian, 
 A. F. Izmaylov, J. Bloino, G. Zheng, J. L. Sonnenberg, M. Hada, 
 M. Ehara, K. Toyota, R. Fukuda, J. Hasegawa, M. Ishida, T. Nakajima, 
 Y. Honda, O. Kitao, H. Nakai, T. Vreven, J. A. Montgomery, Jr., 
 J. E. Peralta, F. Ogliaro, M. Bearpark, J. J. Heyd, E. Brothers, 
 K. N. Kudin, V. N. Staroverov, T. Keith, R. Kobayashi, J. Normand, 
 K. Raghavachari, A. Rendell, J. C. Burant, S. S. Iyengar, J. Tomasi, 
 M. Cossi, N. Rega, J. M. Millam, M. Klene, J. E. Knox, J. B. Cross, 
 V. Bakken, C. Adamo, J. Jaramillo, R. Gomperts, R. E. Stratmann, 
 O. Yazyev, A. J. Austin, R. Cammi, C. Pomelli, J. W. Ochterski, 
 R. L. Martin, K. Morokuma, V. G. Zakrzewski, G. A. Voth, 
 P. Salvador, J. J. Dannenberg, S. Dapprich, A. D. Daniels, 
 O. Farkas, J. B. Foresman, J. V. Ortiz, J. Cioslowski, 
 and D. J. Fox, Gaussian, Inc., Wallingford CT, 2010.
 
 ******************************************
 Gaussian 09:  EM64L-G09RevC.01 23-Sep-2011
                24-Apr-2026 
 ******************************************
 %nprocshared=8
 Will use up to    8 processors via shared memory.
 %mem=14GB
 -----------------------------------
 # opt=modredundant b3lyp/6-31g(d,p)
 -----------------------------------
 1/14=-1,18=120,19=15,26=3,38=1/1,3;
 2/9=110,12=2,17=6,18=5,40=1/2;
 3/5=1,6=6,7=101,11=2,16=1,25=1,30=1,71=1,74=-5/1,2,3;
 4//1;
 5/5=2,38=5/2;
 6/7=2,8=2,9=2,10=2,28=1/1;
 7//1,2,3,16;
 1/14=-1,18=20,19=15/3(2);
 2/9=110/2;
 99//99;
 2/9=110/2;
 3/5=1,6=6,7=101,11=2,16=1,25=1,30=1,71=1,74=-5/1,2,3;
 4/5=5,16=3/1;
 5/5=2,38=5/2;
 7//1,2,3,16;
 1/14=-1,18=20,19=15/3(-5);
 2/9=110/2;
 6/7=2,8=2,9=2,10=2,19=2,28=1/1;
 99/9=1/99;
 ---------------
 QM dihedral opt
 ---------------
 Charge =  0 Multiplicity = 1
 Symbolic Z-Matrix:
 C                     0.77435   2.81418   0.54231 
 C                    -0.07869   1.72143  -0.07911 
 O                    -1.20462   1.96634  -0.51083 
 N                     0.44653   0.45486  -0.1798 
 C                    -0.49152  -0.57493  -0.62856 
 C                    -1.66844  -0.72063   0.35506 
 O                    -1.4148   -0.83856   1.55276 
 N                    -2.93078  -0.81059  -0.15685 
 C                    -3.27542  -0.39196  -1.51649 
 C                    -4.03318  -1.04575   0.76899 
 H                     0.29679   3.76706   0.31592 
 H                     1.79915   2.81976   0.16078 
 H                     0.81883   2.69795   1.63058 
 H                    -0.80927  -0.35634  -1.64783 
 H                     0.0346   -1.53295  -0.63917 
 H                    -2.99361  -1.14142  -2.2662 
 H                    -4.35825  -0.26435  -1.57092 
 H                    -2.80616   0.5662   -1.75209 
 H                    -4.71421  -1.79813   0.35706 
 H                    -3.62098  -1.39784   1.71295 
 H                    -4.59909  -0.12369   0.95396 
 C                     1.63744   0.0046    0.54262 
 H                     1.98843   0.78683   1.21542 
 H                     1.37028  -0.85068   1.16997 
 C                     2.77454  -0.37146  -0.40733 
 H                     3.05872   0.50234  -1.01852 
 H                     2.44993  -1.16079  -1.10759 
 O                     3.85701  -0.81508   0.38336 
 C                     4.97898  -1.20171  -0.3824 
 H                     5.75285  -1.52632   0.31684 
 H                     4.74195  -2.03472  -1.0627 
 H                     5.37069  -0.36696  -0.9846 
 
 The following ModRedundant input section has been read:
 D       2       4       5       6 F                                           
 D       4       5       6       8 S  36 10.000                                

 GradGradGradGradGradGradGradGradGradGradGradGradGradGradGradGradGradGrad
 Berny optimization.
 Initialization pass.
                           ----------------------------
                           !    Initial Parameters    !
                           ! (Angstroms and Degrees)  !
 --------------------------                            --------------------------
 ! Name  Definition              Value          Derivative Info.                !
 --------------------------------------------------------------------------------
 ! R1    R(1,2)                  1.5192         estimate D2E/DX2                !
 ! R2    R(1,11)                 1.0896         estimate D2E/DX2                !
 ! R3    R(1,12)                 1.0935         estimate D2E/DX2                !
 ! R4    R(1,13)                 1.0954         estimate D2E/DX2                !
 ! R5    R(2,3)                  1.2305         estimate D2E/DX2                !
 ! R6    R(2,4)                  1.3748         estimate D2E/DX2                !
 ! R7    R(4,5)                  1.4635         estimate D2E/DX2                !
 ! R8    R(4,22)                 1.4639         estimate D2E/DX2                !
 ! R9    R(5,6)                  1.5407         estimate D2E/DX2                !
 ! R10   R(5,14)                 1.0898         estimate D2E/DX2                !
 ! R11   R(5,15)                 1.093          estimate D2E/DX2                !
 ! R12   R(6,7)                  1.2299         estimate D2E/DX2                !
 ! R13   R(6,8)                  1.3652         estimate D2E/DX2                !
 ! R14   R(8,9)                  1.4638         estimate D2E/DX2                !
 ! R15   R(8,10)                 1.4587         estimate D2E/DX2                !
 ! R16   R(9,16)                 1.0969         estimate D2E/DX2                !
 ! R17   R(9,17)                 1.0917         estimate D2E/DX2                !
 ! R18   R(9,18)                 1.0926         estimate D2E/DX2                !
 ! R19   R(10,19)                1.0952         estimate D2E/DX2                !
 ! R20   R(10,20)                1.0885         estimate D2E/DX2                !
 ! R21   R(10,21)                1.0976         estimate D2E/DX2                !
 ! R22   R(22,23)                1.0898         estimate D2E/DX2                !
 ! R23   R(22,24)                1.0938         estimate D2E/DX2                !
 ! R24   R(22,25)                1.5287         estimate D2E/DX2                !
 ! R25   R(25,26)                1.1036         estimate D2E/DX2                !
 ! R26   R(25,27)                1.104          estimate D2E/DX2                !
 ! R27   R(25,28)                1.412          estimate D2E/DX2                !
 ! R28   R(28,29)                1.4123         estimate D2E/DX2                !
 ! R29   R(29,30)                1.0923         estimate D2E/DX2                !
 ! R30   R(29,31)                1.1013         estimate D2E/DX2                !
 ! R31   R(29,32)                1.1013         estimate D2E/DX2                !
 ! A1    A(2,1,11)             107.3339         estimate D2E/DX2                !
 ! A2    A(2,1,12)             112.7785         estimate D2E/DX2                !
 ! A3    A(2,1,13)             110.6631         estimate D2E/DX2                !
 ! A4    A(11,1,12)            109.4981         estimate D2E/DX2                !
 ! A5    A(11,1,13)            108.4827         estimate D2E/DX2                !
 ! A6    A(12,1,13)            108.0067         estimate D2E/DX2                !
 ! A7    A(1,2,3)              120.9405         estimate D2E/DX2                !
 ! A8    A(1,2,4)              118.5616         estimate D2E/DX2                !
 ! A9    A(3,2,4)              120.4793         estimate D2E/DX2                !
 ! A10   A(2,4,5)              115.2036         estimate D2E/DX2                !
 ! A11   A(2,4,22)             123.9182         estimate D2E/DX2                !
 ! A12   A(5,4,22)             117.1516         estimate D2E/DX2                !
 ! A13   A(4,5,6)              111.1248         estimate D2E/DX2                !
 ! A14   A(4,5,14)             109.4232         estimate D2E/DX2                !
 ! A15   A(4,5,15)             108.1314         estimate D2E/DX2                !
 ! A16   A(6,5,14)             113.1623         estimate D2E/DX2                !
 ! A17   A(6,5,15)             106.917          estimate D2E/DX2                !
 ! A18   A(14,5,15)            107.8826         estimate D2E/DX2                !
 ! A19   A(5,6,7)              118.2432         estimate D2E/DX2                !
 ! A20   A(5,6,8)              118.241          estimate D2E/DX2                !
 ! A21   A(7,6,8)              123.3349         estimate D2E/DX2                !
 ! A22   A(6,8,9)              123.1732         estimate D2E/DX2                !
 ! A23   A(6,8,10)             118.1284         estimate D2E/DX2                !
 ! A24   A(9,8,10)             117.2404         estimate D2E/DX2                !
 ! A25   A(8,9,16)             112.2698         estimate D2E/DX2                !
 ! A26   A(8,9,17)             108.2567         estimate D2E/DX2                !
 ! A27   A(8,9,18)             110.4854         estimate D2E/DX2                !
 ! A28   A(16,9,17)            107.4948         estimate D2E/DX2                !
 ! A29   A(16,9,18)            109.9663         estimate D2E/DX2                !
 ! A30   A(17,9,18)            108.2246         estimate D2E/DX2                !
 ! A31   A(8,10,19)            109.9963         estimate D2E/DX2                !
 ! A32   A(8,10,20)            108.4432         estimate D2E/DX2                !
 ! A33   A(8,10,21)            111.1736         estimate D2E/DX2                !
 ! A34   A(19,10,20)           109.8419         estimate D2E/DX2                !
 ! A35   A(19,10,21)           108.6554         estimate D2E/DX2                !
 ! A36   A(20,10,21)           108.7127         estimate D2E/DX2                !
 ! A37   A(4,22,23)            110.2365         estimate D2E/DX2                !
 ! A38   A(4,22,24)            108.9565         estimate D2E/DX2                !
 ! A39   A(4,22,25)            111.9718         estimate D2E/DX2                !
 ! A40   A(23,22,24)           106.6073         estimate D2E/DX2                !
 ! A41   A(23,22,25)           108.7012         estimate D2E/DX2                !
 ! A42   A(24,22,25)           110.2269         estimate D2E/DX2                !
 ! A43   A(22,25,26)           109.9332         estimate D2E/DX2                !
 ! A44   A(22,25,27)           110.5691         estimate D2E/DX2                !
 ! A45   A(22,25,28)           107.4312         estimate D2E/DX2                !
 ! A46   A(26,25,27)           106.8908         estimate D2E/DX2                !
 ! A47   A(26,25,28)           111.1918         estimate D2E/DX2                !
 ! A48   A(27,25,28)           110.8537         estimate D2E/DX2                !
 ! A49   A(25,28,29)           113.0416         estimate D2E/DX2                !
 ! A50   A(28,29,30)           107.282          estimate D2E/DX2                !
 ! A51   A(28,29,31)           111.7778         estimate D2E/DX2                !
 ! A52   A(28,29,32)           111.8098         estimate D2E/DX2                !
 ! A53   A(30,29,31)           108.8524         estimate D2E/DX2                !
 ! A54   A(30,29,32)           108.8617         estimate D2E/DX2                !
 ! A55   A(31,29,32)           108.1853         estimate D2E/DX2                !
 ! D1    D(11,1,2,3)           -11.8925         estimate D2E/DX2                !
 ! D2    D(11,1,2,4)           166.5429         estimate D2E/DX2                !
 ! D3    D(12,1,2,3)          -132.576          estimate D2E/DX2                !
 ! D4    D(12,1,2,4)            45.8595         estimate D2E/DX2                !
 ! D5    D(13,1,2,3)           106.3134         estimate D2E/DX2                !
 ! D6    D(13,1,2,4)           -75.2512         estimate D2E/DX2                !
 ! D7    D(1,2,4,5)            172.4957         estimate D2E/DX2                !
 ! D8    D(1,2,4,22)            14.9387         estimate D2E/DX2                !
 ! D9    D(3,2,4,5)             -9.0614         estimate D2E/DX2                !
 ! D10   D(3,2,4,22)          -166.6183         estimate D2E/DX2                !
 ! D11   D(2,4,5,6)            -61.3302         Frozen                          !
 ! D12   D(2,4,5,14)            64.3568         estimate D2E/DX2                !
 ! D13   D(2,4,5,15)          -178.3802         estimate D2E/DX2                !
 ! D14   D(22,4,5,6)            97.8128         estimate D2E/DX2                !
 ! D15   D(22,4,5,14)         -136.5001         estimate D2E/DX2                !
 ! D16   D(22,4,5,15)          -19.2371         estimate D2E/DX2                !
 ! D17   D(2,4,22,23)            4.3006         estimate D2E/DX2                !
 ! D18   D(2,4,22,24)          120.9612         estimate D2E/DX2                !
 ! D19   D(2,4,22,25)         -116.8457         estimate D2E/DX2                !
 ! D20   D(5,4,22,23)         -152.8569         estimate D2E/DX2                !
 ! D21   D(5,4,22,24)          -36.1963         estimate D2E/DX2                !
 ! D22   D(5,4,22,25)           85.9968         estimate D2E/DX2                !
 ! D23   D(4,5,6,7)            -49.4828         estimate D2E/DX2                !
 ! D24   D(4,5,6,8)            135.2409         Scan                            !
 ! D25   D(14,5,6,7)          -173.0594         estimate D2E/DX2                !
 ! D26   D(14,5,6,8)            11.6643         estimate D2E/DX2                !
 ! D27   D(15,5,6,7)            68.3063         estimate D2E/DX2                !
 ! D28   D(15,5,6,8)          -106.97           estimate D2E/DX2                !
 ! D29   D(5,6,8,9)            -18.545          estimate D2E/DX2                !
 ! D30   D(5,6,8,10)           175.6298         estimate D2E/DX2                !
 ! D31   D(7,6,8,9)            166.4364         estimate D2E/DX2                !
 ! D32   D(7,6,8,10)             0.6112         estimate D2E/DX2                !
 ! D33   D(6,8,9,16)            79.3157         estimate D2E/DX2                !
 ! D34   D(6,8,9,17)          -162.1843         estimate D2E/DX2                !
 ! D35   D(6,8,9,18)           -43.8384         estimate D2E/DX2                !
 ! D36   D(10,8,9,16)         -114.742          estimate D2E/DX2                !
 ! D37   D(10,8,9,17)            3.758          estimate D2E/DX2                !
 ! D38   D(10,8,9,18)          122.1039         estimate D2E/DX2                !
 ! D39   D(6,8,10,19)         -136.392          estimate D2E/DX2                !
 ! D40   D(6,8,10,20)          -16.2519         estimate D2E/DX2                !
 ! D41   D(6,8,10,21)          103.2106         estimate D2E/DX2                !
 ! D42   D(9,8,10,19)           56.9368         estimate D2E/DX2                !
 ! D43   D(9,8,10,20)          177.0768         estimate D2E/DX2                !
 ! D44   D(9,8,10,21)          -63.4606         estimate D2E/DX2                !
 ! D45   D(4,22,25,26)          60.0739         estimate D2E/DX2                !
 ! D46   D(4,22,25,27)         -57.7138         estimate D2E/DX2                !
 ! D47   D(4,22,25,28)        -178.8014         estimate D2E/DX2                !
 ! D48   D(23,22,25,26)        -61.9551         estimate D2E/DX2                !
 ! D49   D(23,22,25,27)       -179.7428         estimate D2E/DX2                !
 ! D50   D(23,22,25,28)         59.1696         estimate D2E/DX2                !
 ! D51   D(24,22,25,26)       -178.4615         estimate D2E/DX2                !
 ! D52   D(24,22,25,27)         63.7508         estimate D2E/DX2                !
 ! D53   D(24,22,25,28)        -57.3368         estimate D2E/DX2                !
 ! D54   D(22,25,28,29)        179.7145         estimate D2E/DX2                !
 ! D55   D(26,25,28,29)        -59.9552         estimate D2E/DX2                !
 ! D56   D(27,25,28,29)         58.806          estimate D2E/DX2                !
 ! D57   D(25,28,29,30)       -179.9345         estimate D2E/DX2                !
 ! D58   D(25,28,29,31)        -60.6781         estimate D2E/DX2                !
 ! D59   D(25,28,29,32)         60.7792         estimate D2E/DX2                !
 --------------------------------------------------------------------------------
 Trust Radius=3.00D-01 FncErr=1.00D-07 GrdErr=1.00D-06
 Number of optimizations in scan=  37
 Number of steps in this run=    155 maximum allowed number of steps=    192.
 GradGradGradGradGradGradGradGradGradGradGradGradGradGradGradGradGradGrad

                          Input orientation:                          
 ---------------------------------------------------------------------
 Center     Atomic      Atomic             Coordinates (Angstroms)
 Number     Number       Type             X           Y           Z
 ---------------------------------------------------------------------
      1          6           0        0.774350    2.814178    0.542310
      2          6           0       -0.078685    1.721428   -0.079114
      3          8           0       -1.204622    1.966338   -0.510828
      4          7           0        0.446530    0.454858   -0.179801
      5          6           0       -0.491515   -0.574927   -0.628561
      6          6           0       -1.668441   -0.720633    0.355056
      7          8           0       -1.414801   -0.838557    1.552757
      8          7           0       -2.930780   -0.810587   -0.156853
      9          6           0       -3.275415   -0.391962   -1.516494
     10          6           0       -4.033181   -1.045753    0.768988
     11          1           0        0.296790    3.767057    0.315915
     12          1           0        1.799150    2.819759    0.160780
     13          1           0        0.818825    2.697946    1.630575
     14          1           0       -0.809267   -0.356337   -1.647830
     15          1           0        0.034599   -1.532948   -0.639171
     16          1           0       -2.993611   -1.141421   -2.266203
     17          1           0       -4.358254   -0.264353   -1.570924
     18          1           0       -2.806157    0.566204   -1.752091
     19          1           0       -4.714213   -1.798125    0.357058
     20          1           0       -3.620978   -1.397836    1.712946
     21          1           0       -4.599092   -0.123692    0.953961
     22          6           0        1.637436    0.004595    0.542615
     23          1           0        1.988429    0.786831    1.215421
     24          1           0        1.370278   -0.850682    1.169968
     25          6           0        2.774543   -0.371462   -0.407331
     26          1           0        3.058717    0.502340   -1.018515
     27          1           0        2.449933   -1.160791   -1.107590
     28          8           0        3.857012   -0.815077    0.383360
     29          6           0        4.978977   -1.201712   -0.382400
     30          1           0        5.752845   -1.526315    0.316840
     31          1           0        4.741945   -2.034720   -1.062697
     32          1           0        5.370689   -0.366960   -0.984596
 ---------------------------------------------------------------------
                    Distance matrix (angstroms):
                    1          2          3          4          5
     1  C    0.000000
     2  C    1.519190   0.000000
     3  O    2.396719   1.230484   0.000000
     4  N    2.489036   1.374841   2.262842   0.000000
     5  C    3.802550   2.396991   2.642047   1.463479   0.000000
     6  C    4.300835   2.946097   2.860891   2.478095   1.540742
     7  O    4.376741   3.316886   3.488552   2.852934   2.383297
     8  N    5.230271   3.814655   3.288804   3.606674   2.495608
     9  C    5.560450   4.092867   3.295622   4.044345   2.927798
    10  C    6.169506   4.900470   4.325664   4.818697   3.836433
    11  H    1.089631   2.116985   2.486027   3.352435   4.512902
    12  H    1.093532   2.188640   3.194062   2.745602   4.170623
    13  H    1.095358   2.163827   3.035654   2.906460   4.187169
    14  H    4.166140   2.704021   2.616085   2.095274   1.089797
    15  H    4.565154   3.304158   3.714451   2.081365   1.093029
    16  H    6.142641   4.634227   3.992492   4.328481   3.043562
    17  H    6.347183   4.948084   4.005644   5.053557   3.992014
    18  H    4.810166   3.401837   2.462930   3.614480   2.814617
    19  H    7.171609   5.836576   5.219352   5.656626   4.505423
    20  H    6.199222   5.048676   4.701235   4.853822   3.994167
    21  H    6.137949   4.990570   4.246912   5.203695   4.424949
    22  C    2.939162   2.505820   3.610467   1.463857   2.497985
    23  H    2.457072   2.611944   3.816641   2.105778   3.377096
    24  H    3.765672   3.205534   4.170226   2.092755   2.603271
    25  C    3.879548   3.553706   4.616251   2.480770   3.279859
    26  H    3.605427   3.494559   4.536198   2.743942   3.730511
    27  H    4.618455   3.969743   4.846734   2.735825   3.037239
    28  O    4.764406   4.705045   5.844312   3.682563   4.471168
    29  C    5.887389   5.849502   6.949096   4.829943   5.511782
    30  H    6.608792   6.686655   7.828793   5.685831   6.386780
    31  H    6.467586   6.189875   7.188511   5.042628   5.450557
    32  H    5.794602   5.905670   6.993100   5.056720   5.876687
                    6          7          8          9         10
     6  C    0.000000
     7  O    1.229930   0.000000
     8  N    1.365153   2.285113   0.000000
     9  C    2.488592   3.616854   1.463777   0.000000
    10  C    2.422610   2.741010   1.458689   2.495011   0.000000
    11  H    4.899288   5.066656   5.620991   5.780641   6.489766
    12  H    4.959466   5.064618   5.970975   6.235352   7.023403
    13  H    4.415894   4.183538   5.437301   6.017838   6.188665
    14  H    2.209625   3.292866   2.632522   2.469900   4.087778
    15  H    2.132765   2.717993   3.089969   3.609396   4.332102
    16  H    2.967177   4.143528   2.136061   1.096889   3.209711
    17  H    3.339564   4.330244   2.082222   1.091690   2.488262
    18  H    2.718532   3.851136   2.110893   1.092607   3.234166
    19  H    3.230746   3.638212   2.102372   2.749115   1.095242
    20  H    2.472826   2.281594   2.077831   3.400070   1.088545
    21  H    3.050203   3.318026   2.118725   2.815535   1.097573
    22  C    3.389684   3.323769   4.692800   5.341656   5.771514
    23  H    4.047885   3.786510   5.351028   6.046566   6.310107
    24  H    3.148779   2.811288   4.501240   5.386090   5.421827
    25  C    4.521422   4.648734   5.727677   6.150826   6.941434
    26  H    5.072315   5.331211   6.191956   6.416306   7.475746
    27  H    4.392502   4.702919   5.475273   5.791192   6.750226
    28  O    5.526333   5.400005   6.809256   7.393239   7.902978
    29  C    6.705479   6.690076   7.922633   8.371192   9.086749
    30  H    7.464990   7.305864   8.725938   9.282098   9.808246
    31  H    6.695513   6.795361   7.822389   8.196502   9.018645
    32  H    7.174197   7.259713   8.354421   8.662485   9.590025
                   11         12         13         14         15
    11  H    0.000000
    12  H    1.782842   0.000000
    13  H    1.773090   1.770924   0.000000
    14  H    4.699153   4.490267   4.767312   0.000000
    15  H    5.391752   4.764412   4.864897   1.764629   0.000000
    16  H    6.448816   6.674710   6.667855   2.402103   3.459853
    17  H    6.440641   7.100998   6.769561   3.551012   4.666332
    18  H    4.914305   5.472334   5.396967   2.202163   3.703367
    19  H    7.488865   7.986694   7.242307   4.620274   4.859425
    20  H    6.631495   7.040960   6.041032   4.503915   4.349017
    21  H    6.286071   7.087351   6.145996   4.602848   5.098545
    22  C    4.000606   2.845540   3.017933   3.303737   2.515898
    23  H    3.542951   2.298019   2.278747   4.163189   3.555044
    24  H    4.817188   3.830735   3.620638   3.596495   2.350002
    25  C    4.877467   3.384972   4.171230   3.792461   2.984978
    26  H    4.479656   2.889235   4.105543   4.011816   3.664913
    27  H    5.562920   4.228127   5.004789   3.400204   2.488324
    28  O    5.803075   4.182866   4.809101   5.109827   4.021411
    29  C    6.862885   5.155441   6.047005   5.984960   4.962109
    30  H    7.601863   5.877450   6.626827   6.949107   5.797615
    31  H    7.437781   5.807143   6.711387   5.828834   4.752921
    32  H    6.672771   4.921682   6.078835   6.215452   5.472906
                   16         17         18         19         20
    16  H    0.000000
    17  H    1.764911   0.000000
    18  H    1.793163   1.769647   0.000000
    19  H    3.205188   2.489232   3.698546   0.000000
    20  H    4.036454   3.551361   4.065448   1.787128   0.000000
    21  H    3.739358   2.540243   3.318628   1.781368   1.776572
    22  C    5.536191   6.362993   5.032554   6.605125   5.566633
    23  H    6.376565   7.010641   5.642948   7.234929   6.040343
    24  H    5.561954   6.377488   5.290426   6.211240   5.050430
    25  C    6.108997   7.227878   5.816512   7.661666   6.815549
    26  H    6.394478   7.476927   5.910919   8.222091   7.462565
    27  H    5.565513   6.882564   5.569953   7.340053   6.698326
    28  O    7.352396   8.462453   7.132034   8.627455   7.617594
    29  C    8.192344   9.459129   8.099993   9.739632   8.853709
    30  H    9.128020  10.362940   9.050725  10.470664   9.478089
    31  H    7.879419   9.284725   8.013358   9.565072   8.834495
    32  H    8.497283   9.747135   8.265631  10.273924   9.444020
                   21         22         23         24         25
    21  H    0.000000
    22  C    6.251395   0.000000
    23  H    6.655287   1.089843   0.000000
    24  H    6.017354   1.093821   1.750893   0.000000
    25  C    7.502333   1.528669   2.143115   2.165522   0.000000
    26  H    7.932504   2.169082   2.493376   3.077491   1.103554
    27  H    7.417164   2.177488   3.066366   2.539506   1.103981
    28  O    8.503487   2.371443   2.598083   2.608422   1.411994
    29  C    9.730745   3.671066   3.930739   3.944081   2.355730
    30  H   10.465939   4.396732   4.508760   4.515662   3.275422
    31  H    9.745456   4.046456   4.553331   4.213654   2.658308
    32  H   10.159415   4.050630   4.196545   4.569401   2.659554
                   26         27         28         29         30
    26  H    0.000000
    27  H    1.773290   0.000000
    28  O    2.082814   2.079019   0.000000
    29  C    2.644964   2.631281   1.412332   0.000000
    30  H    3.627250   3.615499   2.025948   1.092326   0.000000
    31  H    3.044977   2.453383   2.088472   1.101313   1.784241
    32  H    2.470232   3.029210   2.088859   1.101312   1.784344
                   31         32
    31  H    0.000000
    32  H    1.784052   0.000000
 Stoichiometry    C9H18N2O3
 Framework group  C1[X(C9H18N2O3)]
 Deg. of freedom    90
 Full point group                 C1      NOp   1
 Largest Abelian subgroup         C1      NOp   1
 Largest concise Abelian subgroup C1      NOp   1
                         Standard orientation:                         
 ---------------------------------------------------------------------
 Center     Atomic      Atomic             Coordinates (Angstroms)
 Number     Number       Type             X           Y           Z
 ---------------------------------------------------------------------
      1          6           0       -0.774350    2.814178   -0.542310
      2          6           0        0.078685    1.721428    0.079114
      3          8           0        1.204622    1.966338    0.510828
      4          7           0       -0.446530    0.454858    0.179801
      5          6           0        0.491515   -0.574927    0.628561
      6          6           0        1.668441   -0.720633   -0.355056
      7          8           0        1.414801   -0.838557   -1.552757
      8          7           0        2.930780   -0.810587    0.156853
      9          6           0        3.275415   -0.391962    1.516494
     10          6           0        4.033181   -1.045753   -0.768988
     11          1           0       -0.296790    3.767057   -0.315915
     12          1           0       -1.799150    2.819759   -0.160780
     13          1           0       -0.818825    2.697946   -1.630575
     14          1           0        0.809267   -0.356337    1.647830
     15          1           0       -0.034599   -1.532948    0.639171
     16          1           0        2.993611   -1.141421    2.266203
     17          1           0        4.358254   -0.264353    1.570924
     18          1           0        2.806157    0.566204    1.752091
     19          1           0        4.714213   -1.798125   -0.357058
     20          1           0        3.620978   -1.397836   -1.712946
     21          1           0        4.599092   -0.123692   -0.953961
     22          6           0       -1.637436    0.004595   -0.542615
     23          1           0       -1.988429    0.786831   -1.215421
     24          1           0       -1.370278   -0.850682   -1.169968
     25          6           0       -2.774543   -0.371462    0.407331
     26          1           0       -3.058717    0.502340    1.018515
     27          1           0       -2.449933   -1.160791    1.107590
     28          8           0       -3.857012   -0.815077   -0.383360
     29          6           0       -4.978977   -1.201712    0.382400
     30          1           0       -5.752845   -1.526315   -0.316840
     31          1           0       -4.741945   -2.034720    1.062697
     32          1           0       -5.370689   -0.366960    0.984596
 ---------------------------------------------------------------------
 Rotational constants (GHZ):      1.1357783      0.3291973      0.2921946
 Standard basis: 6-31G(d,p) (6D, 7F)
 There are   300 symmetry adapted basis functions of A   symmetry.
 Integral buffers will be    131072 words long.
 Raffenetti 2 integral format.
 Two-electron integral symmetry is turned on.
   300 basis functions,   518 primitive gaussians,   300 cartesian basis functions
    55 alpha electrons       55 beta electrons
       nuclear repulsion energy       966.8568563409 Hartrees.
 NAtoms=   32 NActive=   32 NUniq=   32 SFac= 1.00D+00 NAtFMM=   60 NAOKFM=F Big=F
 One-electron integrals computed using PRISM.
 NBasis=   300 RedAO= T  NBF=   300
 NBsUse=   300 1.00D-06 NBFU=   300
 Harris functional with IExCor=  402 diagonalized for initial guess.
 ExpMin= 1.61D-01 ExpMax= 5.48D+03 ExpMxC= 8.25D+02 IAcc=1 IRadAn=         1 AccDes= 0.00D+00
 HarFok:  IExCor=  402 AccDes= 0.00D+00 IRadAn=         1 IDoV= 1
 ScaDFX=  1.000000  1.000000  1.000000  1.000000
 FoFCou: FMM=F IPFlag=           0 FMFlag=      100000 FMFlg1=           0
         NFxFlg=           0 DoJE=T BraDBF=F KetDBF=T FulRan=T
         Omega=  0.000000  0.000000  1.000000  0.000000  0.000000 ICntrl=     500 IOpCl=  0
         NMat0=    1 NMatS0=    1 NMatT0=    0 NMatD0=    1 NMtDS0=    0 NMtDT0=    0
         I1Cent=           4 NGrid=           0.
 Petite list used in FoFCou.
 Initial guess orbital symmetries:
       Occupied  (A) (A) (A) (A) (A) (A) (A) (A) (A) (A) (A) (A)
                 (A) (A) (A) (A) (A) (A) (A) (A) (A) (A) (A) (A)
                 (A) (A) (A) (A) (A) (A) (A) (A) (A) (A) (A) (A)
                 (A) (A) (A) (A) (A) (A) (A) (A) (A) (A) (A) (A)
                 (A) (A) (A) (A) (A) (A) (A)
       Virtual   (A) (A) (A) (A) (A) (A) (A) (A) (A) (A) (A) (A)
                 (A) (A) (A) (A) (A) (A) (A) (A) (A) (A) (A) (A)
                 (A) (A) (A) (A) (A) (A) (A) (A) (A) (A) (A) (A)
                 (A) (A) (A) (A) (A) (A) (A) (A) (A) (A) (A) (A)
                 (A) (A) (A) (A) (A) (A) (A) (A) (A) (A) (A) (A)
                 (A) (A) (A) (A) (A) (A) (A) (A) (A) (A) (A) (A)
                 (A) (A) (A) (A) (A) (A) (A) (A) (A) (A) (A) (A)
                 (A) (A) (A) (A) (A) (A) (A) (A) (A) (A) (A) (A)
                 (A) (A) (A) (A) (A) (A) (A) (A) (A) (A) (A) (A)
                 (A) (A) (A) (A) (A) (A) (A) (A) (A) (A) (A) (A)
                 (A) (A) (A) (A) (A) (A) (A) (A) (A) (A) (A) (A)
                 (A) (A) (A) (A) (A) (A) (A) (A) (A) (A) (A) (A)
                 (A) (A) (A) (A) (A) (A) (A) (A) (A) (A) (A) (A)
                 (A) (A) (A) (A) (A) (A) (A) (A) (A) (A) (A) (A)
                 (A) (A) (A) (A) (A) (A) (A) (A) (A) (A) (A) (A)
                 (A) (A) (A) (A) (A) (A) (A) (A) (A) (A) (A) (A)
                 (A) (A) (A) (A) (A) (A) (A) (A) (A) (A) (A) (A)
                 (A) (A) (A) (A) (A) (A) (A) (A) (A) (A) (A) (A)
                 (A) (A) (A) (A) (A) (A) (A) (A) (A) (A) (A) (A)
                 (A) (A) (A) (A) (A) (A) (A) (A) (A) (A) (A) (A)
                 (A) (A) (A) (A) (A)
 The electronic state of the initial guess is 1-A.
 Requested convergence on RMS density matrix=1.00D-08 within 128 cycles.
 Requested convergence on MAX density matrix=1.00D-06.
 Requested convergence on             energy=1.00D-06.
 No special actions if energy rises.
 Keep R1 ints in memory in canonical form, NReq=1033484665.
 Integral accuracy reduced to 1.0D-05 until final iterations.
 Initial convergence to 1.0D-05 achieved.  Increase integral accuracy.
 SCF Done:  E(RB3LYP) =  -688.996132428     A.U. after   14 cycles
             Convg  =    0.6796D-08             -V/T =  2.0093

 **********************************************************************

            Population analysis using the SCF density.

 **********************************************************************

 Orbital symmetries:
       Occupied  (A) (A) (A) (A) (A) (A) (A) (A) (A) (A) (A) (A)
                 (A) (A) (A) (A) (A) (A) (A) (A) (A) (A) (A) (A)
                 (A) (A) (A) (A) (A) (A) (A) (A) (A) (A) (A) (A)
                 (A) (A) (A) (A) (A) (A) (A) (A) (A) (A) (A) (A)
                 (A) (A) (A) (A) (A) (A) (A)
       Virtual   (A) (A) (A) (A) (A) (A) (A) (A) (A) (A) (A) (A)
                 (A) (A) (A) (A) (A) (A) (A) (A) (A) (A) (A) (A)
                 (A) (A) (A) (A) (A) (A) (A) (A) (A) (A) (A) (A)
                 (A) (A) (A) (A) (A) (A) (A) (A) (A) (A) (A) (A)
                 (A) (A) (A) (A) (A) (A) (A) (A) (A) (A) (A) (A)
                 (A) (A) (A) (A) (A) (A) (A) (A) (A) (A) (A) (A)
                 (A) (A) (A) (A) (A) (A) (A) (A) (A) (A) (A) (A)
                 (A) (A) (A) (A) (A) (A) (A) (A) (A) (A) (A) (A)
                 (A) (A) (A) (A) (A) (A) (A) (A) (A) (A) (A) (A)
                 (A) (A) (A) (A) (A) (A) (A) (A) (A) (A) (A) (A)
                 (A) (A) (A) (A) (A) (A) (A) (A) (A) (A) (A) (A)
                 (A) (A) (A) (A) (A) (A) (A) (A) (A) (A) (A) (A)
                 (A) (A) (A) (A) (A) (A) (A) (A) (A) (A) (A) (A)
                 (A) (A) (A) (A) (A) (A) (A) (A) (A) (A) (A) (A)
                 (A) (A) (A) (A) (A) (A) (A) (A) (A) (A) (A) (A)
                 (A) (A) (A) (A) (A) (A) (A) (A) (A) (A) (A) (A)
                 (A) (A) (A) (A) (A) (A) (A) (A) (A) (A) (A) (A)
                 (A) (A) (A) (A) (A) (A) (A) (A) (A) (A) (A) (A)
                 (A) (A) (A) (A) (A) (A) (A) (A) (A) (A) (A) (A)
                 (A) (A) (A) (A) (A) (A) (A) (A) (A) (A) (A) (A)
                 (A) (A) (A) (A) (A)
 The electronic state is 1-A.
 Alpha  occ. eigenvalues --  -19.15541 -19.11051 -19.09946 -14.36374 -14.35816
 Alpha  occ. eigenvalues --  -10.28412 -10.27522 -10.23855 -10.23322 -10.22535
 Alpha  occ. eigenvalues --  -10.22179 -10.21433 -10.20655 -10.18920  -1.03962
 Alpha  occ. eigenvalues --   -1.03312  -1.01757  -0.93043  -0.92229  -0.77030
 Alpha  occ. eigenvalues --   -0.75438  -0.72166  -0.70775  -0.68180  -0.66926
 Alpha  occ. eigenvalues --   -0.62191  -0.56135  -0.52506  -0.50687  -0.50234
 Alpha  occ. eigenvalues --   -0.49549  -0.47842  -0.46802  -0.46188  -0.45913
 Alpha  occ. eigenvalues --   -0.45242  -0.43570  -0.42524  -0.41004  -0.40535
 Alpha  occ. eigenvalues --   -0.40056  -0.39541  -0.39185  -0.38336  -0.37897
 Alpha  occ. eigenvalues --   -0.37053  -0.35858  -0.35731  -0.33899  -0.32571
 Alpha  occ. eigenvalues --   -0.26239  -0.25663  -0.24676  -0.23523  -0.22594
 Alpha virt. eigenvalues --    0.02362   0.03052   0.07937   0.09210   0.10171
 Alpha virt. eigenvalues --    0.11486   0.12840   0.13482   0.13630   0.14485
 Alpha virt. eigenvalues --    0.15045   0.15523   0.15812   0.16109   0.16713
 Alpha virt. eigenvalues --    0.17167   0.17415   0.18174   0.18445   0.19039
 Alpha virt. eigenvalues --    0.19946   0.21019   0.21265   0.21836   0.22641
 Alpha virt. eigenvalues --    0.23933   0.26382   0.27506   0.28844   0.33832
 Alpha virt. eigenvalues --    0.36022   0.38688   0.41478   0.48251   0.49450
 Alpha virt. eigenvalues --    0.50335   0.51225   0.51489   0.51877   0.54425
 Alpha virt. eigenvalues --    0.55121   0.55660   0.55944   0.57283   0.57995
 Alpha virt. eigenvalues --    0.59175   0.61135   0.61921   0.63140   0.64147
 Alpha virt. eigenvalues --    0.64569   0.66741   0.68500   0.70163   0.71553
 Alpha virt. eigenvalues --    0.73872   0.74388   0.76032   0.77675   0.78029
 Alpha virt. eigenvalues --    0.78648   0.80060   0.80644   0.81472   0.83305
 Alpha virt. eigenvalues --    0.83528   0.83683   0.84656   0.85069   0.85692
 Alpha virt. eigenvalues --    0.86288   0.87990   0.88162   0.89493   0.90531
 Alpha virt. eigenvalues --    0.90861   0.92093   0.92834   0.93243   0.94788
 Alpha virt. eigenvalues --    0.95438   0.96228   0.98556   0.99764   1.01121
 Alpha virt. eigenvalues --    1.02220   1.05030   1.06535   1.08576   1.10548
 Alpha virt. eigenvalues --    1.13493   1.17339   1.18381   1.21008   1.22913
 Alpha virt. eigenvalues --    1.24149   1.27921   1.28864   1.29261   1.31014
 Alpha virt. eigenvalues --    1.34513   1.34666   1.36856   1.38508   1.40759
 Alpha virt. eigenvalues --    1.41237   1.43384   1.47979   1.52134   1.54499
 Alpha virt. eigenvalues --    1.54726   1.58105   1.60644   1.64055   1.65485
 Alpha virt. eigenvalues --    1.68749   1.69755   1.71278   1.73922   1.75647
 Alpha virt. eigenvalues --    1.78479   1.79104   1.80952   1.82312   1.83131
 Alpha virt. eigenvalues --    1.84998   1.85655   1.87167   1.87663   1.88641
 Alpha virt. eigenvalues --    1.89679   1.90995   1.91342   1.93201   1.93895
 Alpha virt. eigenvalues --    1.96183   1.96721   1.97104   1.99881   2.00915
 Alpha virt. eigenvalues --    2.01255   2.02275   2.02710   2.02965   2.03436
 Alpha virt. eigenvalues --    2.03786   2.04821   2.05834   2.06180   2.07461
 Alpha virt. eigenvalues --    2.09026   2.09466   2.10760   2.10809   2.11676
 Alpha virt. eigenvalues --    2.13520   2.16330   2.17729   2.21762   2.22098
 Alpha virt. eigenvalues --    2.22531   2.24817   2.26544   2.27755   2.31608
 Alpha virt. eigenvalues --    2.32211   2.33497   2.35173   2.35853   2.38555
 Alpha virt. eigenvalues --    2.40773   2.44014   2.46806   2.47549   2.49319
 Alpha virt. eigenvalues --    2.52019   2.53313   2.54728   2.56956   2.57240
 Alpha virt. eigenvalues --    2.58716   2.60424   2.62102   2.62391   2.65702
 Alpha virt. eigenvalues --    2.65920   2.68104   2.68471   2.69682   2.69876
 Alpha virt. eigenvalues --    2.70630   2.73421   2.73922   2.77860   2.78960
 Alpha virt. eigenvalues --    2.80571   2.82479   2.83319   2.84356   2.85463
 Alpha virt. eigenvalues --    2.86974   2.88084   2.89628   2.90561   2.92001
 Alpha virt. eigenvalues --    2.97681   2.99323   3.00051   3.04723   3.07865
 Alpha virt. eigenvalues --    3.12549   3.13752   3.14585   3.17295   3.19362
 Alpha virt. eigenvalues --    3.23556   3.25388   3.26892   3.32836   3.35947
 Alpha virt. eigenvalues --    3.38223   3.42096   3.42185   3.42972   3.43039
 Alpha virt. eigenvalues --    3.43622   3.44897   3.46375   3.47325   3.49898
 Alpha virt. eigenvalues --    3.54992   3.96003   4.02508   4.08712   4.12555
 Alpha virt. eigenvalues --    4.23840   4.35768   4.39620   4.41588   4.44888
 Alpha virt. eigenvalues --    4.51464   4.53675   4.63097   4.68348   4.74345
          Condensed to atoms (all electrons):
              1          2          3          4          5          6
     1  C    5.157903   0.347339  -0.079446  -0.120294   0.008576  -0.000407
     2  C    0.347339   4.357219   0.566282   0.267130  -0.035429   0.002668
     3  O   -0.079446   0.566282   8.097979  -0.103060   0.011392   0.009038
     4  N   -0.120294   0.267130  -0.103060   7.098554   0.267232  -0.052780
     5  C    0.008576  -0.035429   0.011392   0.267232   5.048047   0.318812
     6  C   -0.000407   0.002668   0.009038  -0.052780   0.318812   4.404869
     7  O   -0.000153   0.004271  -0.001413  -0.000643  -0.086826   0.559533
     8  N   -0.000031  -0.000410  -0.001772   0.002318  -0.103996   0.270262
     9  C   -0.000026  -0.000068  -0.008205   0.000343  -0.000030  -0.025016
    10  C    0.000000  -0.000027  -0.000060  -0.000115   0.005763  -0.029551
    11  H    0.367002  -0.022598   0.004813   0.004447  -0.000190   0.000005
    12  H    0.356151  -0.019539   0.002110   0.002873  -0.000252   0.000021
    13  H    0.367379  -0.021451   0.000507   0.001169  -0.000200   0.000027
    14  H   -0.000052  -0.004762   0.003187  -0.035981   0.357767  -0.031059
    15  H   -0.000133   0.005826   0.000962  -0.036282   0.370874  -0.029018
    16  H    0.000000  -0.000044   0.000117  -0.000058  -0.001534  -0.002584
    17  H    0.000000   0.000004   0.000058  -0.000003   0.000178   0.001913
    18  H    0.000148   0.000557   0.018461  -0.000589  -0.001961  -0.003037
    19  H    0.000000  -0.000001  -0.000001   0.000000  -0.000131   0.003101
    20  H    0.000000  -0.000012   0.000001  -0.000008   0.001029  -0.003797
    21  H    0.000000   0.000019   0.000045   0.000009  -0.000179  -0.000546
    22  C   -0.000935  -0.022829   0.002273   0.242282  -0.035763  -0.004164
    23  H    0.008088  -0.009253   0.000148  -0.030276   0.003983   0.000207
    24  H   -0.000342   0.002102  -0.000049  -0.035008  -0.003597   0.001650
    25  C   -0.000841   0.000677  -0.000043  -0.054434  -0.004575   0.000238
    26  H   -0.000195   0.000836  -0.000025   0.005512  -0.000054  -0.000016
    27  H    0.000028  -0.000051   0.000001   0.001162   0.002019   0.000174
    28  O   -0.000008   0.000009   0.000000   0.001999   0.000015   0.000000
    29  C    0.000000  -0.000001   0.000000  -0.000128  -0.000001   0.000000
    30  H    0.000000   0.000000   0.000000   0.000001   0.000000   0.000000
    31  H    0.000000   0.000000   0.000000   0.000011  -0.000002   0.000000
    32  H    0.000000   0.000000   0.000000   0.000009   0.000000   0.000000
              7          8          9         10         11         12
     1  C   -0.000153  -0.000031  -0.000026   0.000000   0.367002   0.356151
     2  C    0.004271  -0.000410  -0.000068  -0.000027  -0.022598  -0.019539
     3  O   -0.001413  -0.001772  -0.008205  -0.000060   0.004813   0.002110
     4  N   -0.000643   0.002318   0.000343  -0.000115   0.004447   0.002873
     5  C   -0.086826  -0.103996  -0.000030   0.005763  -0.000190  -0.000252
     6  C    0.559533   0.270262  -0.025016  -0.029551   0.000005   0.000021
     7  O    8.130622  -0.092260   0.002591  -0.009776   0.000000   0.000000
     8  N   -0.092260   7.028808   0.277136   0.292639   0.000001   0.000000
     9  C    0.002591   0.277136   4.842777  -0.046591   0.000000   0.000001
    10  C   -0.009776   0.292639  -0.046591   4.813067   0.000000   0.000000
    11  H    0.000000   0.000001   0.000000   0.000000   0.548798  -0.023800
    12  H    0.000000   0.000000   0.000001   0.000000  -0.023800   0.589059
    13  H    0.000093   0.000001   0.000000   0.000000  -0.021289  -0.029385
    14  H    0.003696   0.001470   0.003764  -0.000171   0.000003  -0.000007
    15  H   -0.001366   0.001425  -0.000138  -0.000158   0.000002  -0.000013
    16  H   -0.000035  -0.042938   0.382193   0.002521   0.000000   0.000000
    17  H   -0.000083  -0.031637   0.385113  -0.005367   0.000000   0.000000
    18  H    0.000137  -0.037780   0.377286   0.002450  -0.000003  -0.000003
    19  H    0.000690  -0.043553  -0.002268   0.383148   0.000000   0.000000
    20  H    0.021585  -0.036135   0.004689   0.385327   0.000000   0.000000
    21  H    0.000715  -0.044099  -0.001978   0.388819   0.000000   0.000000
    22  C    0.000408   0.000036  -0.000004  -0.000001   0.000443  -0.001889
    23  H   -0.000035   0.000003   0.000000   0.000000  -0.000001  -0.001338
    24  H    0.007838   0.000058  -0.000006   0.000003  -0.000014   0.000202
    25  C    0.000187   0.000004   0.000000   0.000000   0.000003  -0.000018
    26  H   -0.000001   0.000000   0.000000   0.000000  -0.000020   0.001830
    27  H    0.000007   0.000001   0.000000   0.000000   0.000001  -0.000048
    28  O    0.000000   0.000000   0.000000   0.000000   0.000000  -0.000029
    29  C    0.000000   0.000000   0.000000   0.000000   0.000000  -0.000001
    30  H    0.000000   0.000000   0.000000   0.000000   0.000000   0.000000
    31  H    0.000000   0.000000   0.000000   0.000000   0.000000   0.000000
    32  H    0.000000   0.000000   0.000000   0.000000   0.000000   0.000002
             13         14         15         16         17         18
     1  C    0.367379  -0.000052  -0.000133   0.000000   0.000000   0.000148
     2  C   -0.021451  -0.004762   0.005826  -0.000044   0.000004   0.000557
     3  O    0.000507   0.003187   0.000962   0.000117   0.000058   0.018461
     4  N    0.001169  -0.035981  -0.036282  -0.000058  -0.000003  -0.000589
     5  C   -0.000200   0.357767   0.370874  -0.001534   0.000178  -0.001961
     6  C    0.000027  -0.031059  -0.029018  -0.002584   0.001913  -0.003037
     7  O    0.000093   0.003696  -0.001366  -0.000035  -0.000083   0.000137
     8  N    0.000001   0.001470   0.001425  -0.042938  -0.031637  -0.037780
     9  C    0.000000   0.003764  -0.000138   0.382193   0.385113   0.377286
    10  C    0.000000  -0.000171  -0.000158   0.002521  -0.005367   0.002450
    11  H   -0.021289   0.000003   0.000002   0.000000   0.000000  -0.000003
    12  H   -0.029385  -0.000007  -0.000013   0.000000   0.000000  -0.000003
    13  H    0.558700  -0.000005  -0.000003   0.000000   0.000000  -0.000001
    14  H   -0.000005   0.608319  -0.030890   0.000521   0.000192  -0.000273
    15  H   -0.000003  -0.030890   0.590294   0.000519  -0.000018   0.000054
    16  H    0.000000   0.000521   0.000519   0.621449  -0.034370  -0.038409
    17  H    0.000000   0.000192  -0.000018  -0.034370   0.588257  -0.022049
    18  H   -0.000001  -0.000273   0.000054  -0.038409  -0.022049   0.538500
    19  H    0.000000  -0.000017   0.000021   0.001311   0.000196  -0.000276
    20  H    0.000000  -0.000049  -0.000021  -0.000168   0.000133  -0.000227
    21  H    0.000000  -0.000002  -0.000005  -0.000442   0.002604   0.001116
    22  C   -0.002268   0.003972  -0.001029  -0.000001   0.000000  -0.000005
    23  H    0.001185  -0.000242   0.000300   0.000000   0.000000   0.000000
    24  H    0.000251   0.000103  -0.000248   0.000001   0.000000  -0.000002
    25  C    0.000030   0.000530  -0.000548   0.000000   0.000000   0.000000
    26  H    0.000040  -0.000011  -0.000164   0.000000   0.000000   0.000000
    27  H   -0.000004  -0.000337   0.003188   0.000000   0.000000   0.000000
    28  O   -0.000001  -0.000001  -0.000100   0.000000   0.000000   0.000000
    29  C    0.000000   0.000000   0.000002   0.000000   0.000000   0.000000
    30  H    0.000000   0.000000   0.000000   0.000000   0.000000   0.000000
    31  H    0.000000   0.000000   0.000003   0.000000   0.000000   0.000000
    32  H    0.000000   0.000000   0.000000   0.000000   0.000000   0.000000
             19         20         21         22         23         24
     1  C    0.000000   0.000000   0.000000  -0.000935   0.008088  -0.000342
     2  C   -0.000001  -0.000012   0.000019  -0.022829  -0.009253   0.002102
     3  O   -0.000001   0.000001   0.000045   0.002273   0.000148  -0.000049
     4  N    0.000000  -0.000008   0.000009   0.242282  -0.030276  -0.035008
     5  C   -0.000131   0.001029  -0.000179  -0.035763   0.003983  -0.003597
     6  C    0.003101  -0.003797  -0.000546  -0.004164   0.000207   0.001650
     7  O    0.000690   0.021585   0.000715   0.000408  -0.000035   0.007838
     8  N   -0.043553  -0.036135  -0.044099   0.000036   0.000003   0.000058
     9  C   -0.002268   0.004689  -0.001978  -0.000004   0.000000  -0.000006
    10  C    0.383148   0.385327   0.388819  -0.000001   0.000000   0.000003
    11  H    0.000000   0.000000   0.000000   0.000443  -0.000001  -0.000014
    12  H    0.000000   0.000000   0.000000  -0.001889  -0.001338   0.000202
    13  H    0.000000   0.000000   0.000000  -0.002268   0.001185   0.000251
    14  H   -0.000017  -0.000049  -0.000002   0.003972  -0.000242   0.000103
    15  H    0.000021  -0.000021  -0.000005  -0.001029   0.000300  -0.000248
    16  H    0.001311  -0.000168  -0.000442  -0.000001   0.000000   0.000001
    17  H    0.000196   0.000133   0.002604   0.000000   0.000000   0.000000
    18  H   -0.000276  -0.000227   0.001116  -0.000005   0.000000  -0.000002
    19  H    0.618572  -0.023535  -0.044291   0.000000   0.000000   0.000000
    20  H   -0.023535   0.523865  -0.028624  -0.000001   0.000000  -0.000002
    21  H   -0.044291  -0.028624   0.606790   0.000000   0.000000   0.000000
    22  C    0.000000  -0.000001   0.000000   4.911276   0.378446   0.376517
    23  H    0.000000   0.000000   0.000000   0.378446   0.591727  -0.029770
    24  H    0.000000  -0.000002   0.000000   0.376517  -0.029770   0.572330
    25  C    0.000000   0.000000   0.000000   0.351631  -0.041000  -0.043484
    26  H    0.000000   0.000000   0.000000  -0.038862  -0.008746   0.006313
    27  H    0.000000   0.000000   0.000000  -0.041309   0.006575  -0.007308
    28  O    0.000000   0.000000   0.000000  -0.039309   0.005224   0.005249
    29  C    0.000000   0.000000   0.000000   0.004387  -0.000073  -0.000078
    30  H    0.000000   0.000000   0.000000  -0.000252   0.000005   0.000009
    31  H    0.000000   0.000000   0.000000   0.000009   0.000050  -0.000056
    32  H    0.000000   0.000000   0.000000   0.000026  -0.000070   0.000041
             25         26         27         28         29         30
     1  C   -0.000841  -0.000195   0.000028  -0.000008   0.000000   0.000000
     2  C    0.000677   0.000836  -0.000051   0.000009  -0.000001   0.000000
     3  O   -0.000043  -0.000025   0.000001   0.000000   0.000000   0.000000
     4  N   -0.054434   0.005512   0.001162   0.001999  -0.000128   0.000001
     5  C   -0.004575  -0.000054   0.002019   0.000015  -0.000001   0.000000
     6  C    0.000238  -0.000016   0.000174   0.000000   0.000000   0.000000
     7  O    0.000187  -0.000001   0.000007   0.000000   0.000000   0.000000
     8  N    0.000004   0.000000   0.000001   0.000000   0.000000   0.000000
     9  C    0.000000   0.000000   0.000000   0.000000   0.000000   0.000000
    10  C    0.000000   0.000000   0.000000   0.000000   0.000000   0.000000
    11  H    0.000003  -0.000020   0.000001   0.000000   0.000000   0.000000
    12  H   -0.000018   0.001830  -0.000048  -0.000029  -0.000001   0.000000
    13  H    0.000030   0.000040  -0.000004  -0.000001   0.000000   0.000000
    14  H    0.000530  -0.000011  -0.000337  -0.000001   0.000000   0.000000
    15  H   -0.000548  -0.000164   0.003188  -0.000100   0.000002   0.000000
    16  H    0.000000   0.000000   0.000000   0.000000   0.000000   0.000000
    17  H    0.000000   0.000000   0.000000   0.000000   0.000000   0.000000
    18  H    0.000000   0.000000   0.000000   0.000000   0.000000   0.000000
    19  H    0.000000   0.000000   0.000000   0.000000   0.000000   0.000000
    20  H    0.000000   0.000000   0.000000   0.000000   0.000000   0.000000
    21  H    0.000000   0.000000   0.000000   0.000000   0.000000   0.000000
    22  C    0.351631  -0.038862  -0.041309  -0.039309   0.004387  -0.000252
    23  H   -0.041000  -0.008746   0.006575   0.005224  -0.000073   0.000005
    24  H   -0.043484   0.006313  -0.007308   0.005249  -0.000078   0.000009
    25  C    4.791777   0.356556   0.363366   0.232180  -0.033908   0.005322
    26  H    0.356556   0.691372  -0.061787  -0.038914  -0.006479  -0.000101
    27  H    0.363366  -0.061787   0.689015  -0.038994  -0.006212  -0.000108
    28  O    0.232180  -0.038914  -0.038994   8.204801   0.258839  -0.032849
    29  C   -0.033908  -0.006479  -0.006212   0.258839   4.707622   0.394933
    30  H    0.005322  -0.000101  -0.000108  -0.032849   0.394933   0.584222
    31  H   -0.009212  -0.002706   0.013509  -0.037600   0.370291  -0.034693
    32  H   -0.008926   0.013231  -0.002749  -0.037645   0.370242  -0.035020
             31         32
     1  C    0.000000   0.000000
     2  C    0.000000   0.000000
     3  O    0.000000   0.000000
     4  N    0.000011   0.000009
     5  C   -0.000002   0.000000
     6  C    0.000000   0.000000
     7  O    0.000000   0.000000
     8  N    0.000000   0.000000
     9  C    0.000000   0.000000
    10  C    0.000000   0.000000
    11  H    0.000000   0.000000
    12  H    0.000000   0.000002
    13  H    0.000000   0.000000
    14  H    0.000000   0.000000
    15  H    0.000003   0.000000
    16  H    0.000000   0.000000
    17  H    0.000000   0.000000
    18  H    0.000000   0.000000
    19  H    0.000000   0.000000
    20  H    0.000000   0.000000
    21  H    0.000000   0.000000
    22  C    0.000009   0.000026
    23  H    0.000050  -0.000070
    24  H   -0.000056   0.000041
    25  C   -0.009212  -0.008926
    26  H   -0.002706   0.013231
    27  H    0.013509  -0.002749
    28  O   -0.037600  -0.037645
    29  C    0.370291   0.370242
    30  H   -0.034693  -0.035020
    31  H    0.660620  -0.052649
    32  H   -0.052649   0.661232
 Mulliken atomic charges:
              1
     1  C   -0.409749
     2  C    0.581537
     3  O   -0.523299
     4  N   -0.425389
     5  C   -0.120968
     6  C    0.609458
     7  O   -0.539781
     8  N   -0.439552
     9  C   -0.191562
    10  C   -0.181920
    11  H    0.142395
    12  H    0.124074
    13  H    0.145223
    14  H    0.120337
    15  H    0.126664
    16  H    0.111953
    17  H    0.114879
    18  H    0.165909
    19  H    0.107035
    20  H    0.155950
    21  H    0.120049
    22  C   -0.083085
    23  H    0.124863
    24  H    0.147297
    25  C    0.094491
    26  H    0.082392
    27  H    0.079865
    28  O   -0.482865
    29  C   -0.059436
    30  H    0.118530
    31  H    0.092425
    32  H    0.092279
 Sum of Mulliken atomic charges =   0.00000
 Mulliken charges with hydrogens summed into heavy atoms:
              1
     1  C    0.001943
     2  C    0.581537
     3  O   -0.523299
     4  N   -0.425389
     5  C    0.126034
     6  C    0.609458
     7  O   -0.539781
     8  N   -0.439552
     9  C    0.201179
    10  C    0.201113
    22  C    0.189075
    25  C    0.256747
    28  O   -0.482865
    29  C    0.243799
 Sum of Mulliken charges with hydrogens summed into heavy atoms =   0.00000
 Electronic spatial extent (au):  <R**2>=           3986.8584
 Charge=              0.0000 electrons
 Dipole moment (field-independent basis, Debye):
    X=             -1.3090    Y=             -0.8665    Z=              2.7761  Tot=              3.1892
 Quadrupole moment (field-independent basis, Debye-Ang):
   XX=            -70.5365   YY=            -84.8175   ZZ=            -87.4944
   XY=             -4.6397   XZ=             -0.1953   YZ=             -6.1699
 Traceless Quadrupole moment (field-independent basis, Debye-Ang):
   XX=             10.4130   YY=             -3.8681   ZZ=             -6.5449
   XY=             -4.6397   XZ=             -0.1953   YZ=             -6.1699
 Octapole moment (field-independent basis, Debye-Ang**2):
  XXX=              5.9177  YYY=              1.2214  ZZZ=              3.9558  XYY=            -15.4857
  XXY=            -22.4202  XXZ=             19.6726  XZZ=              0.3193  YZZ=              3.2958
  YYZ=             -5.2535  XYZ=              0.2363
 Hexadecapole moment (field-independent basis, Debye-Ang**3):
 XXXX=          -3324.8481 YYYY=           -908.6638 ZZZZ=           -433.9245 XXXY=             47.7526
 XXXZ=            -51.5809 YYYX=             -6.3312 YYYZ=             -6.9006 ZZZX=             21.0810
 ZZZY=             -2.1041 XXYY=           -776.5638 XXZZ=           -698.0352 YYZZ=           -225.9317
 XXYZ=             -8.9285 YYXZ=             -8.1240 ZZXY=              1.9145
 N-N= 9.668568563409D+02 E-N=-3.539854820297D+03  KE= 6.826280473022D+02
 Calling FoFJK, ICntrl=      2127 FMM=F ISym2X=0 I1Cent= 0 IOpClX= 0 NMat=1 NMatS=1 NMatT=0.
 ***** Axes restored to original set *****
 -------------------------------------------------------------------
 Center     Atomic                   Forces (Hartrees/Bohr)
 Number     Number              X              Y              Z
 -------------------------------------------------------------------
      1        6           0.000004112   -0.000000519    0.000002582
      2        6           0.000961556    0.000695702   -0.003628185
      3        8           0.000012265    0.000006896    0.000006827
      4        7          -0.000709176   -0.001831656    0.005729865
      5        6          -0.001957343    0.003414071   -0.003782509
      6        6           0.001698081   -0.002280356    0.001687699
      7        8          -0.000008157   -0.000004923   -0.000002353
      8        7           0.000008973    0.000000780    0.000002833
      9        6           0.000004911   -0.000014495   -0.000018579
     10        6          -0.000010437    0.000006420    0.000000788
     11        1           0.000002409    0.000000234    0.000006038
     12        1           0.000002331   -0.000002118    0.000004470
     13        1           0.000002088   -0.000001723    0.000003813
     14        1          -0.000001232    0.000003296   -0.000010562
     15        1          -0.000005939    0.000003134   -0.000000039
     16        1          -0.000005370    0.000010525    0.000001722
     17        1           0.000000731    0.000009976   -0.000000902
     18        1           0.000000430    0.000011689    0.000001391
     19        1           0.000003813    0.000004435   -0.000001169
     20        1          -0.000001743   -0.000000910    0.000001050
     21        1           0.000003785    0.000002281    0.000001186
     22        6          -0.000001387   -0.000007918   -0.000002086
     23        1           0.000001156   -0.000002259    0.000002377
     24        1          -0.000001707   -0.000000438   -0.000000102
     25        6           0.000004302    0.000000512    0.000000074
     26        1           0.000000452   -0.000000038    0.000000420
     27        1          -0.000002895   -0.000003075   -0.000002647
     28        8          -0.000013574   -0.000000408    0.000013051
     29        6           0.000017942   -0.000009719   -0.000019848
     30        1          -0.000004807   -0.000004267    0.000000837
     31        1          -0.000003285   -0.000002276   -0.000000414
     32        1          -0.000002283   -0.000002851    0.000002372
 -------------------------------------------------------------------
 Cartesian Forces:  Max     0.005729865 RMS     0.000978898

 GradGradGradGradGradGradGradGradGradGradGradGradGradGradGradGradGradGrad
 Berny optimization.
 Internal  Forces:  Max     0.003403037 RMS     0.000459140
 Search for a local minimum.
 Step number   1 out of a maximum of  155 on scan point     1 out of    37
 All quantities printed in internal units (Hartrees-Bohrs-Radians)
 Mixed Optimization -- En-DIIS/RFO-DIIS
 Second derivative matrix not updated -- first step.
 ITU=  0
     Eigenvalues ---    0.00387   0.00512   0.00742   0.00847   0.00848
     Eigenvalues ---    0.00915   0.01115   0.01245   0.01304   0.01529
     Eigenvalues ---    0.01533   0.02025   0.02153   0.02921   0.04223
     Eigenvalues ---    0.05344   0.05484   0.05904   0.06442   0.06950
     Eigenvalues ---    0.07143   0.07423   0.07500   0.07656   0.07659
     Eigenvalues ---    0.09345   0.09642   0.10038   0.10509   0.10633
     Eigenvalues ---    0.11109   0.12810   0.13626   0.16000   0.16000
     Eigenvalues ---    0.16000   0.16000   0.16000   0.16000   0.16000
     Eigenvalues ---    0.16000   0.16000   0.16000   0.16000   0.16000
     Eigenvalues ---    0.21923   0.21924   0.21988   0.22752   0.23887
     Eigenvalues ---    0.24256   0.24542   0.24916   0.24993   0.25000
     Eigenvalues ---    0.25000   0.25000   0.28453   0.29547   0.30445
     Eigenvalues ---    0.33246   0.33292   0.33537   0.33537   0.33952
     Eigenvalues ---    0.34028   0.34201   0.34214   0.34375   0.34408
     Eigenvalues ---    0.34465   0.34513   0.34545   0.34618   0.34831
     Eigenvalues ---    0.34836   0.34855   0.34981   0.36486   0.36495
     Eigenvalues ---    0.36532   0.37129   0.43636   0.43689   0.50058
     Eigenvalues ---    0.51919   0.90885   0.911161000.000001000.00000
     Eigenvalues --- 1000.000001000.000001000.000001000.000001000.00000
     Eigenvalues --- 1000.000001000.000001000.000001000.000001000.00000
     Eigenvalues --- 1000.000001000.000001000.000001000.000001000.00000
     Eigenvalues --- 1000.000001000.000001000.000001000.000001000.00000
     Eigenvalues --- 1000.000001000.000001000.000001000.000001000.00000
     Eigenvalues --- 1000.000001000.000001000.000001000.000001000.00000
     Eigenvalues --- 1000.000001000.000001000.000001000.000001000.00000
     Eigenvalues --- 1000.000001000.000001000.000001000.000001000.00000
     Eigenvalues --- 1000.000001000.000001000.000001000.000001000.00000
     Eigenvalues --- 1000.000001000.000001000.000001000.000001000.00000
     Eigenvalues --- 1000.000001000.000001000.000001000.000001000.00000
 RFO step:  Lambda=-1.78754089D-08 EMin= 3.86712879D-03
 Linear search not attempted -- first point.
 Iteration  1 RMS(Cart)=  0.00029175 RMS(Int)=  0.00000002
 Iteration  2 RMS(Cart)=  0.00000004 RMS(Int)=  0.00000000
 Iteration  1 RMS(Cart)=  0.00000000 RMS(Int)=  0.00000000
 Variable       Old X    -DE/DX   Delta X   Delta X   Delta X     New X
                                 (Linear)    (Quad)   (Total)
    R1        2.87085   0.00000   0.00000   0.00001   0.00001   2.87086
    R2        2.05910   0.00000   0.00000   0.00000   0.00000   2.05911
    R3        2.06648   0.00000   0.00000   0.00000   0.00000   2.06647
    R4        2.06993   0.00000   0.00000   0.00000   0.00000   2.06993
    R5        2.32528  -0.00001   0.00000  -0.00001  -0.00001   2.32527
    R6        2.59807   0.00001   0.00000   0.00002   0.00002   2.59810
    R7        2.76557   0.00002   0.00000   0.00005   0.00005   2.76562
    R8        2.76629   0.00000   0.00000   0.00000   0.00000   2.76629
    R9        2.91158  -0.00001   0.00000  -0.00002  -0.00002   2.91156
   R10        2.05942   0.00001   0.00000   0.00003   0.00003   2.05945
   R11        2.06553   0.00000   0.00000  -0.00001  -0.00001   2.06551
   R12        2.32423   0.00000   0.00000   0.00000   0.00000   2.32423
   R13        2.57977  -0.00001   0.00000  -0.00002  -0.00002   2.57975
   R14        2.76614   0.00001   0.00000   0.00003   0.00003   2.76617
   R15        2.75652   0.00001   0.00000   0.00002   0.00002   2.75654
   R16        2.07282  -0.00001   0.00000  -0.00002  -0.00002   2.07280
   R17        2.06300   0.00000   0.00000   0.00000   0.00000   2.06299
   R18        2.06473   0.00001   0.00000   0.00002   0.00002   2.06475
   R19        2.06971   0.00000   0.00000  -0.00001  -0.00001   2.06969
   R20        2.05705   0.00000   0.00000   0.00001   0.00001   2.05706
   R21        2.07411   0.00000   0.00000  -0.00001  -0.00001   2.07411
   R22        2.05950   0.00000   0.00000   0.00000   0.00000   2.05951
   R23        2.06702   0.00000   0.00000   0.00000   0.00000   2.06702
   R24        2.88877   0.00000   0.00000   0.00000   0.00000   2.88877
   R25        2.08541   0.00000   0.00000   0.00000   0.00000   2.08542
   R26        2.08622   0.00000   0.00000   0.00001   0.00001   2.08623
   R27        2.66828   0.00000   0.00000   0.00000   0.00000   2.66828
   R28        2.66892   0.00002   0.00000   0.00004   0.00004   2.66896
   R29        2.06420   0.00000   0.00000   0.00000   0.00000   2.06419
   R30        2.08118   0.00000   0.00000   0.00000   0.00000   2.08118
   R31        2.08118   0.00000   0.00000   0.00000   0.00000   2.08117
    A1        1.87333   0.00000   0.00000   0.00000   0.00000   1.87333
    A2        1.96836   0.00000   0.00000   0.00000   0.00000   1.96836
    A3        1.93144   0.00000   0.00000   0.00001   0.00001   1.93144
    A4        1.91110   0.00000   0.00000   0.00000   0.00000   1.91111
    A5        1.89338   0.00000   0.00000  -0.00001  -0.00001   1.89337
    A6        1.88507   0.00000   0.00000   0.00000   0.00000   1.88507
    A7        2.11081  -0.00001   0.00000  -0.00003  -0.00003   2.11078
    A8        2.06929   0.00000   0.00000  -0.00001  -0.00001   2.06928
    A9        2.10276   0.00001   0.00000   0.00004   0.00004   2.10280
   A10        2.01068  -0.00023   0.00000   0.00005   0.00005   2.01074
   A11        2.16278   0.00076   0.00000   0.00001   0.00001   2.16279
   A12        2.04468  -0.00016   0.00000   0.00000   0.00000   2.04468
   A13        1.93949  -0.00002   0.00000   0.00001   0.00001   1.93951
   A14        1.90980   0.00008   0.00000   0.00001   0.00001   1.90981
   A15        1.88725  -0.00014   0.00000   0.00000   0.00000   1.88725
   A16        1.97505   0.00152   0.00000   0.00002   0.00002   1.97507
   A17        1.86605  -0.00157   0.00000  -0.00004  -0.00004   1.86602
   A18        1.88291   0.00003   0.00000  -0.00001  -0.00001   1.88290
   A19        2.06373   0.00001   0.00000   0.00004   0.00004   2.06377
   A20        2.06369   0.00000   0.00000   0.00000   0.00000   2.06370
   A21        2.15260  -0.00001   0.00000  -0.00003  -0.00003   2.15257
   A22        2.14978   0.00000   0.00000   0.00001   0.00001   2.14979
   A23        2.06173  -0.00001   0.00000  -0.00005  -0.00005   2.06168
   A24        2.04623   0.00001   0.00000   0.00003   0.00003   2.04626
   A25        1.95948   0.00000   0.00000   0.00004   0.00004   1.95952
   A26        1.88944   0.00000   0.00000  -0.00001  -0.00001   1.88943
   A27        1.92833   0.00000   0.00000  -0.00002  -0.00002   1.92832
   A28        1.87614   0.00000   0.00000   0.00000   0.00000   1.87614
   A29        1.91927   0.00000   0.00000   0.00002   0.00002   1.91930
   A30        1.88888   0.00000   0.00000  -0.00004  -0.00004   1.88883
   A31        1.91980   0.00000   0.00000  -0.00001  -0.00001   1.91979
   A32        1.89269   0.00000   0.00000   0.00001   0.00001   1.89270
   A33        1.94035   0.00000   0.00000   0.00000   0.00000   1.94034
   A34        1.91710   0.00000   0.00000  -0.00002  -0.00002   1.91709
   A35        1.89639   0.00000   0.00000   0.00003   0.00003   1.89643
   A36        1.89739   0.00000   0.00000  -0.00001  -0.00001   1.89738
   A37        1.92399   0.00000   0.00000   0.00000   0.00000   1.92399
   A38        1.90165   0.00000   0.00000   0.00001   0.00001   1.90166
   A39        1.95428  -0.00001   0.00000  -0.00002  -0.00002   1.95425
   A40        1.86065   0.00000   0.00000   0.00000   0.00000   1.86064
   A41        1.89719   0.00000   0.00000   0.00000   0.00000   1.89719
   A42        1.92382   0.00000   0.00000   0.00003   0.00003   1.92385
   A43        1.91870   0.00000   0.00000  -0.00001  -0.00001   1.91869
   A44        1.92980   0.00000   0.00000  -0.00001  -0.00001   1.92978
   A45        1.87503   0.00000   0.00000   0.00002   0.00002   1.87505
   A46        1.86560   0.00000   0.00000   0.00000   0.00000   1.86560
   A47        1.94066   0.00000   0.00000   0.00000   0.00000   1.94066
   A48        1.93476   0.00000   0.00000   0.00000   0.00000   1.93476
   A49        1.97295  -0.00001   0.00000  -0.00003  -0.00003   1.97292
   A50        1.87242  -0.00001   0.00000  -0.00003  -0.00003   1.87239
   A51        1.95089   0.00000   0.00000  -0.00001  -0.00001   1.95088
   A52        1.95145   0.00000   0.00000  -0.00001  -0.00001   1.95144
   A53        1.89983   0.00000   0.00000   0.00002   0.00002   1.89985
   A54        1.90000   0.00000   0.00000   0.00002   0.00002   1.90001
   A55        1.88819   0.00000   0.00000   0.00002   0.00002   1.88821
    D1       -0.20756   0.00000   0.00000   0.00006   0.00006  -0.20750
    D2        2.90672   0.00000   0.00000  -0.00006  -0.00006   2.90666
    D3       -2.31389   0.00000   0.00000   0.00006   0.00006  -2.31383
    D4        0.80040   0.00000   0.00000  -0.00007  -0.00007   0.80033
    D5        1.85552   0.00000   0.00000   0.00005   0.00005   1.85557
    D6       -1.31338   0.00000   0.00000  -0.00008  -0.00008  -1.31346
    D7        3.01062   0.00050   0.00000   0.00016   0.00016   3.01077
    D8        0.26073  -0.00050   0.00000   0.00000   0.00000   0.26073
    D9       -0.15815   0.00050   0.00000   0.00003   0.00003  -0.15812
   D10       -2.90804  -0.00050   0.00000  -0.00013  -0.00013  -2.90817
   D11       -1.07041  -0.00340   0.00000   0.00000   0.00000  -1.07041
   D12        1.12324  -0.00140   0.00000   0.00004   0.00004   1.12328
   D13       -3.11332  -0.00140   0.00000   0.00004   0.00004  -3.11329
   D14        1.70716  -0.00225   0.00000   0.00015   0.00015   1.70730
   D15       -2.38238  -0.00026   0.00000   0.00018   0.00018  -2.38219
   D16       -0.33575  -0.00025   0.00000   0.00018   0.00018  -0.33557
   D17        0.07506   0.00050   0.00000   0.00008   0.00008   0.07513
   D18        2.11117   0.00050   0.00000   0.00007   0.00007   2.11124
   D19       -2.03934   0.00050   0.00000   0.00010   0.00010  -2.03924
   D20       -2.66786  -0.00050   0.00000  -0.00009  -0.00009  -2.66795
   D21       -0.63174  -0.00050   0.00000  -0.00010  -0.00010  -0.63184
   D22        1.50093  -0.00050   0.00000  -0.00007  -0.00007   1.50086
   D23       -0.86364   0.00078   0.00000   0.00015   0.00015  -0.86349
   D24        2.36040   0.00078   0.00000   0.00000   0.00000   2.36040
   D25       -3.02046  -0.00044   0.00000   0.00011   0.00011  -3.02034
   D26        0.20358  -0.00044   0.00000  -0.00004  -0.00004   0.20354
   D27        1.19217  -0.00034   0.00000   0.00014   0.00014   1.19231
   D28       -1.86698  -0.00034   0.00000  -0.00001  -0.00001  -1.86699
   D29       -0.32367   0.00001   0.00000   0.00031   0.00031  -0.32336
   D30        3.06532   0.00001   0.00000   0.00036   0.00036   3.06568
   D31        2.90486   0.00001   0.00000   0.00015   0.00015   2.90501
   D32        0.01067   0.00000   0.00000   0.00020   0.00020   0.01087
   D33        1.38432   0.00000   0.00000   0.00014   0.00014   1.38446
   D34       -2.83065   0.00000   0.00000   0.00016   0.00016  -2.83049
   D35       -0.76512   0.00000   0.00000   0.00009   0.00009  -0.76503
   D36       -2.00262   0.00000   0.00000   0.00008   0.00008  -2.00255
   D37        0.06559   0.00000   0.00000   0.00009   0.00009   0.06569
   D38        2.13112   0.00000   0.00000   0.00003   0.00003   2.13115
   D39       -2.38049   0.00000   0.00000  -0.00005  -0.00005  -2.38054
   D40       -0.28365   0.00000   0.00000  -0.00007  -0.00007  -0.28372
   D41        1.80136   0.00000   0.00000  -0.00009  -0.00009   1.80128
   D42        0.99373   0.00000   0.00000   0.00000   0.00000   0.99374
   D43        3.09057   0.00000   0.00000  -0.00002  -0.00002   3.09056
   D44       -1.10760   0.00000   0.00000  -0.00003  -0.00003  -1.10763
   D45        1.04849   0.00000   0.00000  -0.00003  -0.00003   1.04846
   D46       -1.00730   0.00000   0.00000  -0.00002  -0.00002  -1.00731
   D47       -3.12067   0.00000   0.00000  -0.00002  -0.00002  -3.12069
   D48       -1.08132   0.00000   0.00000   0.00000   0.00000  -1.08132
   D49       -3.13710   0.00000   0.00000   0.00001   0.00001  -3.13710
   D50        1.03270   0.00000   0.00000   0.00000   0.00000   1.03271
   D51       -3.11474   0.00000   0.00000  -0.00001  -0.00001  -3.11475
   D52        1.11266   0.00000   0.00000   0.00000   0.00000   1.11266
   D53       -1.00072   0.00000   0.00000  -0.00001  -0.00001  -1.00072
   D54        3.13661   0.00000   0.00000   0.00003   0.00003   3.13664
   D55       -1.04642   0.00000   0.00000   0.00003   0.00003  -1.04638
   D56        1.02636   0.00000   0.00000   0.00003   0.00003   1.02639
   D57       -3.14045   0.00000   0.00000  -0.00001  -0.00001  -3.14045
   D58       -1.05903   0.00000   0.00000  -0.00001  -0.00001  -1.05904
   D59        1.06080   0.00000   0.00000   0.00001   0.00001   1.06080
         Item               Value     Threshold  Converged?
 Maximum Force            0.000018     0.000450     YES
 RMS     Force            0.000004     0.000300     YES
 Maximum Displacement     0.001231     0.001800     YES
 RMS     Displacement     0.000292     0.001200     YES
 Predicted change in Energy=-8.935716D-09
 Optimization completed.
    -- Stationary point found.
                           ----------------------------
                           !   Optimized Parameters   !
                           ! (Angstroms and Degrees)  !
 --------------------------                            --------------------------
 ! Name  Definition              Value          Derivative Info.                !
 --------------------------------------------------------------------------------
 ! R1    R(1,2)                  1.5192         -DE/DX =    0.0                 !
 ! R2    R(1,11)                 1.0896         -DE/DX =    0.0                 !
 ! R3    R(1,12)                 1.0935         -DE/DX =    0.0                 !
 ! R4    R(1,13)                 1.0954         -DE/DX =    0.0                 !
 ! R5    R(2,3)                  1.2305         -DE/DX =    0.0                 !
 ! R6    R(2,4)                  1.3748         -DE/DX =    0.0                 !
 ! R7    R(4,5)                  1.4635         -DE/DX =    0.0                 !
 ! R8    R(4,22)                 1.4639         -DE/DX =    0.0                 !
 ! R9    R(5,6)                  1.5407         -DE/DX =    0.0                 !
 ! R10   R(5,14)                 1.0898         -DE/DX =    0.0                 !
 ! R11   R(5,15)                 1.093          -DE/DX =    0.0                 !
 ! R12   R(6,7)                  1.2299         -DE/DX =    0.0                 !
 ! R13   R(6,8)                  1.3652         -DE/DX =    0.0                 !
 ! R14   R(8,9)                  1.4638         -DE/DX =    0.0                 !
 ! R15   R(8,10)                 1.4587         -DE/DX =    0.0                 !
 ! R16   R(9,16)                 1.0969         -DE/DX =    0.0                 !
 ! R17   R(9,17)                 1.0917         -DE/DX =    0.0                 !
 ! R18   R(9,18)                 1.0926         -DE/DX =    0.0                 !
 ! R19   R(10,19)                1.0952         -DE/DX =    0.0                 !
 ! R20   R(10,20)                1.0885         -DE/DX =    0.0                 !
 ! R21   R(10,21)                1.0976         -DE/DX =    0.0                 !
 ! R22   R(22,23)                1.0898         -DE/DX =    0.0                 !
 ! R23   R(22,24)                1.0938         -DE/DX =    0.0                 !
 ! R24   R(22,25)                1.5287         -DE/DX =    0.0                 !
 ! R25   R(25,26)                1.1036         -DE/DX =    0.0                 !
 ! R26   R(25,27)                1.104          -DE/DX =    0.0                 !
 ! R27   R(25,28)                1.412          -DE/DX =    0.0                 !
 ! R28   R(28,29)                1.4123         -DE/DX =    0.0                 !
 ! R29   R(29,30)                1.0923         -DE/DX =    0.0                 !
 ! R30   R(29,31)                1.1013         -DE/DX =    0.0                 !
 ! R31   R(29,32)                1.1013         -DE/DX =    0.0                 !
 ! A1    A(2,1,11)             107.3339         -DE/DX =    0.0                 !
 ! A2    A(2,1,12)             112.7785         -DE/DX =    0.0                 !
 ! A3    A(2,1,13)             110.6631         -DE/DX =    0.0                 !
 ! A4    A(11,1,12)            109.4981         -DE/DX =    0.0                 !
 ! A5    A(11,1,13)            108.4827         -DE/DX =    0.0                 !
 ! A6    A(12,1,13)            108.0067         -DE/DX =    0.0                 !
 ! A7    A(1,2,3)              120.9405         -DE/DX =    0.0                 !
 ! A8    A(1,2,4)              118.5616         -DE/DX =    0.0                 !
 ! A9    A(3,2,4)              120.4793         -DE/DX =    0.0                 !
 ! A10   A(2,4,5)              115.2036         -DE/DX =   -0.0002              !
 ! A11   A(2,4,22)             123.9182         -DE/DX =    0.0008              !
 ! A12   A(5,4,22)             117.1516         -DE/DX =   -0.0002              !
 ! A13   A(4,5,6)              111.1248         -DE/DX =    0.0                 !
 ! A14   A(4,5,14)             109.4232         -DE/DX =    0.0001              !
 ! A15   A(4,5,15)             108.1314         -DE/DX =   -0.0001              !
 ! A16   A(6,5,14)             113.1623         -DE/DX =    0.0015              !
[...]
   D20       -2.59462  -0.00116   0.00026  -0.00150  -0.00125  -2.59586
   D21       -0.54532  -0.00115   0.00024  -0.00140  -0.00116  -0.54648
   D22        1.57996  -0.00118   0.00026  -0.00141  -0.00115   1.57881
   D23        0.12422  -0.00106  -0.00027   0.00174   0.00147   0.12570
   D24       -2.87559  -0.00398   0.00000   0.00000   0.00000  -2.87559
   D25       -1.98197  -0.00091  -0.00050   0.00263   0.00213  -1.97984
   D26        1.30141  -0.00383  -0.00024   0.00089   0.00066   1.30206
   D27        2.23210  -0.00090  -0.00048   0.00293   0.00244   2.23455
   D28       -0.76771  -0.00382  -0.00022   0.00118   0.00097  -0.76674
   D29       -0.32321   0.00148  -0.00002  -0.00343  -0.00345  -0.32666
   D30        3.12348   0.00145  -0.00021   0.00330   0.00308   3.12656
   D31        2.96192  -0.00142   0.00024  -0.00518  -0.00493   2.95699
   D32        0.12542  -0.00145   0.00006   0.00155   0.00160   0.12703
   D33        0.32200  -0.00002   0.00074   0.02721   0.02795   0.34995
   D34        2.41258   0.00004   0.00070   0.02639   0.02710   2.43967
   D35       -1.78676   0.00003   0.00072   0.02637   0.02709  -1.75967
   D36       -3.11534  -0.00001   0.00092   0.02034   0.02126  -3.09408
   D37       -1.02477   0.00005   0.00089   0.01952   0.02041  -1.00436
   D38        1.05908   0.00004   0.00090   0.01950   0.02041   1.07949
   D39       -2.41077  -0.00001   0.00056  -0.01191  -0.01135  -2.42213
   D40       -0.31439   0.00000   0.00055  -0.01202  -0.01147  -0.32587
   D41        1.77952   0.00001   0.00055  -0.01224  -0.01170   1.76783
   D42        1.00709  -0.00002   0.00040  -0.00532  -0.00492   1.00217
   D43        3.10346  -0.00001   0.00040  -0.00544  -0.00504   3.09843
   D44       -1.08580  -0.00001   0.00039  -0.00566  -0.00526  -1.09106
   D45        1.06880  -0.00001  -0.00004   0.00096   0.00093   1.06973
   D46       -0.98350  -0.00003  -0.00003   0.00047   0.00045  -0.98305
   D47       -3.09860  -0.00004  -0.00005   0.00043   0.00037  -3.09822
   D48       -1.06243   0.00002  -0.00001   0.00136   0.00135  -1.06107
   D49       -3.11473   0.00000   0.00001   0.00087   0.00088  -3.11385
   D50        1.05336  -0.00001  -0.00002   0.00082   0.00080   1.05416
   D51       -3.08203   0.00006  -0.00003   0.00195   0.00192  -3.08011
   D52        1.14885   0.00003  -0.00002   0.00146   0.00144   1.15029
   D53       -0.96624   0.00002  -0.00005   0.00141   0.00136  -0.96488
   D54       -3.13208   0.00001  -0.00011  -0.00021  -0.00032  -3.13240
   D55       -1.03421   0.00003  -0.00013  -0.00021  -0.00035  -1.03456
   D56        1.03724   0.00005  -0.00013   0.00007  -0.00007   1.03718
   D57       -3.14007   0.00001  -0.00008   0.00010   0.00002  -3.14005
   D58       -1.05816  -0.00002  -0.00010  -0.00020  -0.00029  -1.05846
   D59        1.06077   0.00002  -0.00007   0.00021   0.00014   1.06091
         Item               Value     Threshold  Converged?
 Maximum Force            0.000327     0.000450     YES
 RMS     Force            0.000060     0.000300     YES
 Maximum Displacement     0.042588     0.001800     NO 
 RMS     Displacement     0.007689     0.001200     NO 
 Predicted change in Energy=-2.943363D-06
 GradGradGradGradGradGradGradGradGradGradGradGradGradGradGradGradGradGrad

                          Input orientation:                          
 ---------------------------------------------------------------------
 Center     Atomic      Atomic             Coordinates (Angstroms)
 Number     Number       Type             X           Y           Z
 ---------------------------------------------------------------------
      1          6           0        1.083575    2.956757    1.092152
      2          6           0        0.172845    2.260485    0.095833
      3          8           0       -0.771857    2.844401   -0.414770
      4          7           0        0.488212    0.958116   -0.296794
      5          6           0       -0.625028    0.216218   -0.869363
      6          6           0       -1.786538    0.049233    0.144782
      7          8           0       -1.763258    0.621605    1.226484
      8          7           0       -2.740157   -0.894890   -0.161188
      9          6           0       -2.956235   -1.445999   -1.490249
     10          6           0       -3.838944   -1.096654    0.775691
     11          1           0        0.795888    4.007428    1.109615
     12          1           0        2.142823    2.875741    0.830682
     13          1           0        0.944278    2.538022    2.094248
     14          1           0       -0.992665    0.749354   -1.750992
     15          1           0       -0.259823   -0.760758   -1.193856
     16          1           0       -2.086178   -1.307092   -2.129468
     17          1           0       -3.154816   -2.521629   -1.418357
     18          1           0       -3.819019   -0.976344   -1.983624
     19          1           0       -4.047015   -2.167935    0.872056
     20          1           0       -3.550662   -0.685808    1.741218
     21          1           0       -4.754014   -0.594900    0.433038
     22          6           0        1.467023    0.136735    0.421550
     23          1           0        1.916261    0.699030    1.238641
     24          1           0        0.974562   -0.730145    0.878078
     25          6           0        2.580870   -0.340654   -0.509729
     26          1           0        3.119110    0.529520   -0.921536
     27          1           0        2.160347   -0.892515   -1.368681
     28          8           0        3.443941   -1.167399    0.243398
     29          6           0        4.529009   -1.664793   -0.511132
     30          1           0        5.129872   -2.287688    0.155411
     31          1           0        4.189308   -2.277901   -1.360845
     32          1           0        5.160322   -0.852859   -0.904743
 ---------------------------------------------------------------------
                    Distance matrix (angstroms):
                    1          2          3          4          5
     1  C    0.000000
     2  C    1.518839   0.000000
     3  O    2.392920   1.222349   0.000000
     4  N    2.505632   1.396345   2.271512   0.000000
     5  C    3.778546   2.397339   2.671247   1.455180   0.000000
     6  C    4.193895   2.954863   3.025829   2.489085   1.550961
     7  O    3.684485   2.777191   2.935543   2.739111   2.419190
     8  N    5.570186   4.302097   4.233298   3.724833   2.491956
     9  C    6.509463   5.103413   4.933123   4.366728   2.929675
    10  C    6.384471   5.275134   5.133823   4.908827   3.841757
    11  H    1.089486   2.113704   2.476733   3.372085   4.506509
    12  H    1.094046   2.190743   3.169778   2.772405   4.198120
    13  H    1.094961   2.160045   3.055185   2.901927   4.078784
    14  H    4.155341   2.655691   2.494688   2.085969   1.093920
    15  H    4.566231   3.313369   3.723752   2.078173   1.092316
    16  H    6.213419   4.773129   4.680013   3.888103   2.458312
    17  H    7.367449   6.019527   5.956505   5.161218   3.767894
    18  H    6.997507   5.544023   5.132699   5.013957   3.586832
    19  H    7.254919   6.166088   6.124222   5.630869   4.519593
    20  H    5.930068   5.025180   4.983213   4.813364   4.023446
    21  H    6.864848   5.704460   5.329647   5.515926   4.404848
    22  C    2.923912   2.508248   3.611575   1.465864   2.459563
    23  H    2.410841   2.604544   3.816067   2.112821   3.336905
    24  H    3.694720   3.193514   4.183159   2.113549   2.551047
    25  C    3.959903   3.596000   4.625405   2.472117   3.273717
    26  H    3.753640   3.565355   4.555778   2.737813   3.757585
    27  H    4.693829   4.004545   4.844824   2.714740   3.039230
    28  O    4.827046   4.740489   5.856679   3.680483   4.439498
    29  C    5.983331   5.895115   6.959979   4.822202   5.498239
    30  H    6.689858   6.727670   7.841802   5.681967   6.359133
    31  H    6.562348   6.233044   7.193484   5.030122   5.444265
    32  H    5.926265   5.963974   7.007179   5.047558   5.883404
                    6          7          8          9         10
     6  C    0.000000
     7  O    1.224023   0.000000
     8  N    1.376363   2.275901   0.000000
     9  C    2.505441   3.616465   1.454927   0.000000
    10  C    2.433819   2.732051   1.458007   2.456766   0.000000
    11  H    4.823602   4.245783   6.176672   7.111792   6.902523
    12  H    4.888710   4.527169   6.248597   7.075631   7.180841
    13  H    4.177541   3.428763   5.517874   6.628351   6.150502
    14  H    2.171258   3.078229   2.878323   2.956885   4.230033
    15  H    2.186068   3.166905   2.690065   2.797863   4.099030
    16  H    2.664885   3.884142   2.114645   1.088529   3.399473
    17  H    3.305286   4.337226   2.097306   1.096167   2.704150
    18  H    3.116553   4.133327   2.119399   1.099269   2.762009
    19  H    3.248771   3.622527   2.096691   2.700273   1.095546
    20  H    2.490186   2.273564   2.078408   3.372478   1.088183
    21  H    3.050231   3.324765   2.121019   2.766842   1.098418
    22  C    3.266484   3.364184   4.370835   5.072005   5.458933
    23  H    3.915288   3.680353   5.116867   5.982408   6.046584
    24  H    2.961220   3.073154   3.860874   4.644629   4.828524
    25  C    4.433356   4.776172   5.361155   5.730858   6.590739
    26  H    5.043123   5.334789   6.077670   6.413729   7.344354
    27  H    4.330746   4.941874   5.047077   5.147867   6.374284
    28  O    5.371017   5.593023   6.203307   6.636671   7.302654
    29  C    6.576796   6.916614   7.318195   7.552180   8.485360
    30  H    7.300550   7.558202   7.998592   8.294683   9.068791
    31  H    6.587352   7.108759   7.167244   7.194970   8.391243
    32  H    7.083370   7.392707   7.935502   8.159235   9.158061
                   11         12         13         14         15
    11  H    0.000000
    12  H    1.781223   0.000000
    13  H    1.775014   1.774025   0.000000
    14  H    4.690100   4.584522   4.662290   0.000000
    15  H    5.399639   4.805787   4.810763   1.768587   0.000000
    16  H    6.858723   6.644022   6.465937   2.359658   2.123540
    17  H    8.039109   7.890168   7.398718   3.935082   3.395887
    18  H    7.463476   7.635604   7.188102   3.319703   3.652135
    19  H    7.851448   7.984640   6.967983   4.971922   4.537726
    20  H    6.427898   6.777129   5.542760   4.560544   4.410203
    21  H    7.241587   7.731095   6.711583   4.552444   4.782473
    22  C    3.988248   2.850658   2.972770   3.338459   2.529235
    23  H    3.495337   2.226170   2.249157   4.171605   3.575383
    24  H    4.746592   3.790712   3.487249   3.601514   2.411960
    25  C    4.971343   3.511948   4.212589   3.936877   2.951958
    26  H    4.649600   3.086770   4.225982   4.200359   3.627143
    27  H    5.658016   4.363170   5.023872   3.575386   2.430051
    28  O    5.877189   4.287749   4.837779   5.228289   3.993610
    29  C    6.981197   5.301961   6.107533   6.152580   4.921006
    30  H    7.702104   6.003287   6.675760   7.095313   5.762018
    31  H    7.558032   5.962459   6.757293   6.014095   4.703656
    32  H    6.835811   5.100926   6.186036   6.414240   5.428631
                   16         17         18         19         20
    16  H    0.000000
    17  H    1.767135   0.000000
    18  H    1.770142   1.774429   0.000000
    19  H    3.687150   2.483367   3.102705   0.000000
    20  H    4.184843   3.675574   3.745781   1.788437   0.000000
    21  H    3.767094   3.114062   2.619155   1.779613   1.779791
    22  C    4.606253   5.640350   5.913210   5.993252   5.253119
    23  H    5.602517   6.568721   6.788469   6.626804   5.661943
    24  H    4.329703   5.053195   5.588235   5.223362   4.607019
    25  C    5.033775   6.203253   6.598110   7.012642   6.540762
    26  H    5.650422   6.994175   7.178669   7.864260   7.283758
    27  H    4.334011   5.559446   6.011490   6.721529   6.506137
    28  O    6.019321   6.938224   7.599126   7.583581   7.169369
    29  C    6.819653   7.784497   8.504809   8.701411   8.444677
    30  H    7.632406   8.436084   9.293963   9.205606   8.968415
    31  H    6.396482   7.348392   8.137273   8.534340   8.489092
    32  H    7.363290   8.496476   9.044766   9.468975   9.105506
                   21         22         23         24         25
    21  H    0.000000
    22  C    6.263922   0.000000
    23  H    6.842208   1.088866   0.000000
    24  H    5.747428   1.096548   1.749098   0.000000
    25  C    7.399592   1.528343   2.139963   2.158225   0.000000
    26  H    8.067544   2.165075   2.478294   3.069927   1.102946
    27  H    7.151445   2.178298   3.064428   2.545658   1.104169
    28  O    8.220108   2.375017   2.609190   2.586859   1.412657
    29  C    9.392052   3.673031   3.933931   3.929067   2.355545
    30  H   10.031640   4.400581   4.518979   4.496086   3.275785
    31  H    9.275426   4.051942   4.559187   4.212234   2.657894
    32  H   10.007510   4.047073   4.186452   4.551274   2.659316
                   26         27         28         29         30
    26  H    0.000000
    27  H    1.772385   0.000000
    28  O    2.083776   2.078935   0.000000
    29  C    2.640314   2.634836   1.412122   0.000000
    30  H    3.624865   3.617657   2.026118   1.092389   0.000000
    31  H    3.036434   2.456835   2.088632   1.101504   1.784317
    32  H    2.465319   3.035895   2.088810   1.101237   1.784262
                   31         32
    31  H    0.000000
    32  H    1.783716   0.000000
 Stoichiometry    C9H18N2O3
 Framework group  C1[X(C9H18N2O3)]
 Deg. of freedom    90
 Full point group                 C1      NOp   1
 Largest Abelian subgroup         C1      NOp   1
 Largest concise Abelian subgroup C1      NOp   1
                         Standard orientation:                         
 ---------------------------------------------------------------------
 Center     Atomic      Atomic             Coordinates (Angstroms)
 Number     Number       Type             X           Y           Z
 ---------------------------------------------------------------------
      1          6           0       -1.062585    2.967107   -0.438846
      2          6           0       -0.167912    2.044830    0.370992
      3          8           0        0.773605    2.481534    1.016725
      4          7           0       -0.495105    0.688939    0.436429
      5          6           0        0.607006   -0.177690    0.826115
      6          6           0        1.779938   -0.106155   -0.186108
      7          8           0        1.773011    0.709047   -1.099141
      8          7           0        2.724616   -1.103875   -0.105419
      9          6           0        2.921407   -1.959321    1.054883
     10          6           0        3.833695   -1.084114   -1.051641
     11          1           0       -0.769028    3.988926   -0.200753
     12          1           0       -2.125381    2.834440   -0.215683
     13          1           0       -0.913284    2.799728   -1.510588
     14          1           0        0.966689    0.125482    1.813725
     15          1           0        0.232575   -1.200948    0.902924
     16          1           0        2.044346   -1.970608    1.699500
     17          1           0        3.115035   -2.987927    0.729216
     18          1           0        3.780607   -1.628740    1.655619
     19          1           0        4.037136   -2.102708   -1.399922
     20          1           0        3.559493   -0.451406   -1.893447
     21          1           0        4.747197   -0.686662   -0.588966
     22          6           0       -1.469466    0.071793   -0.468285
     23          1           0       -1.905610    0.817255   -1.131379
     24          1           0       -0.976142   -0.664345   -1.114156
     25          6           0       -2.597207   -0.605821    0.309451
     26          1           0       -3.135740    0.144612    0.912214
     27          1           0       -2.190233   -1.350956    1.015380
     28          8           0       -3.455442   -1.220782   -0.629088
     29          6           0       -4.552349   -1.875675   -0.027425
     30          1           0       -5.148357   -2.315646   -0.830241
     31          1           0       -4.226407   -2.677391    0.653988
     32          1           0       -5.184038   -1.176656    0.542719
 ---------------------------------------------------------------------
 Rotational constants (GHZ):      0.8417349      0.3772654      0.2945439
 Standard basis: 6-31G(d,p) (6D, 7F)
 There are   300 symmetry adapted basis functions of A   symmetry.
 Integral buffers will be    131072 words long.
 Raffenetti 2 integral format.
 Two-electron integral symmetry is turned on.
   300 basis functions,   518 primitive gaussians,   300 cartesian basis functions
    55 alpha electrons       55 beta electrons
       nuclear repulsion energy       963.8851291329 Hartrees.
 NAtoms=   32 NActive=   32 NUniq=   32 SFac= 1.00D+00 NAtFMM=   60 NAOKFM=F Big=F
 One-electron integrals computed using PRISM.
 NBasis=   300 RedAO= T  NBF=   300
 NBsUse=   300 1.00D-06 NBFU=   300
 Initial guess read from the read-write file.
 B after Tr=     0.000000    0.000000    0.000000
         Rot=    1.000000    0.000000    0.000000    0.000000 Ang=   0.00 deg.
 Initial guess orbital symmetries:
       Occupied  (A) (A) (A) (A) (A) (A) (A) (A) (A) (A) (A) (A)
                 (A) (A) (A) (A) (A) (A) (A) (A) (A) (A) (A) (A)
                 (A) (A) (A) (A) (A) (A) (A) (A) (A) (A) (A) (A)
                 (A) (A) (A) (A) (A) (A) (A) (A) (A) (A) (A) (A)
                 (A) (A) (A) (A) (A) (A) (A)
       Virtual   (A) (A) (A) (A) (A) (A) (A) (A) (A) (A) (A) (A)
                 (A) (A) (A) (A) (A) (A) (A) (A) (A) (A) (A) (A)
                 (A) (A) (A) (A) (A) (A) (A) (A) (A) (A) (A) (A)
                 (A) (A) (A) (A) (A) (A) (A) (A) (A) (A) (A) (A)
                 (A) (A) (A) (A) (A) (A) (A) (A) (A) (A) (A) (A)
                 (A) (A) (A) (A) (A) (A) (A) (A) (A) (A) (A) (A)
                 (A) (A) (A) (A) (A) (A) (A) (A) (A) (A) (A) (A)
                 (A) (A) (A) (A) (A) (A) (A) (A) (A) (A) (A) (A)
                 (A) (A) (A) (A) (A) (A) (A) (A) (A) (A) (A) (A)
                 (A) (A) (A) (A) (A) (A) (A) (A) (A) (A) (A) (A)
                 (A) (A) (A) (A) (A) (A) (A) (A) (A) (A) (A) (A)
                 (A) (A) (A) (A) (A) (A) (A) (A) (A) (A) (A) (A)
                 (A) (A) (A) (A) (A) (A) (A) (A) (A) (A) (A) (A)
                 (A) (A) (A) (A) (A) (A) (A) (A) (A) (A) (A) (A)
                 (A) (A) (A) (A) (A) (A) (A) (A) (A) (A) (A) (A)
                 (A) (A) (A) (A) (A) (A) (A) (A) (A) (A) (A) (A)
                 (A) (A) (A) (A) (A) (A) (A) (A) (A) (A) (A) (A)
                 (A) (A) (A) (A) (A) (A) (A) (A) (A) (A) (A) (A)
                 (A) (A) (A) (A) (A) (A) (A) (A) (A) (A) (A) (A)
                 (A) (A) (A) (A) (A) (A) (A) (A) (A) (A) (A) (A)
                 (A) (A) (A) (A) (A)
 Harris functional with IExCor=  402 diagonalized for initial guess.
 ExpMin= 1.61D-01 ExpMax= 5.48D+03 ExpMxC= 8.25D+02 IAcc=1 IRadAn=         1 AccDes= 0.00D+00
 HarFok:  IExCor=  402 AccDes= 0.00D+00 IRadAn=         1 IDoV= 1
 ScaDFX=  1.000000  1.000000  1.000000  1.000000
 FoFCou: FMM=F IPFlag=           0 FMFlag=      100000 FMFlg1=           0
         NFxFlg=           0 DoJE=T BraDBF=F KetDBF=T FulRan=T
         Omega=  0.000000  0.000000  1.000000  0.000000  0.000000 ICntrl=     500 IOpCl=  0
         NMat0=    1 NMatS0=    1 NMatT0=    0 NMatD0=    1 NMtDS0=    0 NMtDT0=    0
         I1Cent=           4 NGrid=           0.
 Petite list used in FoFCou.
 Requested convergence on RMS density matrix=1.00D-08 within 128 cycles.
 Requested convergence on MAX density matrix=1.00D-06.
 Requested convergence on             energy=1.00D-06.
 No special actions if energy rises.
 Keep R1 ints in memory in canonical form, NReq=1033484776.
