 Entering Gaussian System, Link 0=/data/opt/apps/g09-C01/g09
 Initial command:
 /data/opt/apps/g09-C01/l1.exe /tmp/g09-tuu61186-1307530c21e64fea8x/Gau-1307665.inp -scrdir=/tmp/g09-tuu61186-1307530c21e64fea8x/
 Entering Link 1 = /data/opt/apps/g09-C01/l1.exe PID=   1307674.
  
 Copyright (c) 1988,1990,1992,1993,1995,1998,2003,2009,2011,
            Gaussian, Inc.  All Rights Reserved.
  
 This is part of the Gaussian(R) 09 program.  It is based on
 the Gaussian(R) 03 system (copyright 2003, Gaussian, Inc.),
 the Gaussian(R) 98 system (copyright 1998, Gaussian, Inc.),
 the Gaussian(R) 94 system (copyright 1995, Gaussian, Inc.),
 the Gaussian 92(TM) system (copyright 1992, Gaussian, Inc.),
 the Gaussian 90(TM) system (copyright 1990, Gaussian, Inc.),
 the Gaussian 88(TM) system (copyright 1988, Gaussian, Inc.),
 the Gaussian 86(TM) system (copyright 1986, Carnegie Mellon
 University), and the Gaussian 82(TM) system (copyright 1983,
 Carnegie Mellon University). Gaussian is a federally registered
 trademark of Gaussian, Inc.
  
 This software contains proprietary and confidential information,
 including trade secrets, belonging to Gaussian, Inc.
  
 This software is provided under written license and may be
 used, copied, transmitted, or stored only in accord with that
 written license.
  
 The following legend is applicable only to US Government
 contracts under FAR:
  
                    RESTRICTED RIGHTS LEGEND
  
 Use, reproduction and disclosure by the US Government is
 subject to restrictions as set forth in subparagraphs (a)
 and (c) of the Commercial Computer Software - Restricted
 Rights clause in FAR 52.227-19.
  
 Gaussian, Inc.
 340 Quinnipiac St., Bldg. 40, Wallingford CT 06492
  
  
 ---------------------------------------------------------------
 Warning -- This program may not be used in any manner that
 competes with the business of Gaussian, Inc. or will provide
 assistance to any competitor of Gaussian, Inc.  The licensee
 of this program is prohibited from giving any competitor of
 Gaussian, Inc. access to this program.  By using this program,
 the user acknowledges that Gaussian, Inc. is engaged in the
 business of creating and licensing software in the field of
 computational chemistry and represents and warrants to the
 licensee that it is not a competitor of Gaussian, Inc. and that
 it will not use this program in any manner prohibited above.
 ---------------------------------------------------------------
  

 Cite this work as:
 Gaussian 09, Revision C.01,
 M. J. Frisch, G. W. Trucks, H. B. Schlegel, G. E. Scuseria, 
 M. A. Robb, J. R. Cheeseman, G. Scalmani, V. Barone, B. Mennucci, 
 G. A. Petersson, H. Nakatsuji, M. Caricato, X. Li, H. P. Hratchian, 
 A. F. Izmaylov, J. Bloino, G. Zheng, J. L. Sonnenberg, M. Hada, 
 M. Ehara, K. Toyota, R. Fukuda, J. Hasegawa, M. Ishida, T. Nakajima, 
 Y. Honda, O. Kitao, H. Nakai, T. Vreven, J. A. Montgomery, Jr., 
 J. E. Peralta, F. Ogliaro, M. Bearpark, J. J. Heyd, E. Brothers, 
 K. N. Kudin, V. N. Staroverov, T. Keith, R. Kobayashi, J. Normand, 
 K. Raghavachari, A. Rendell, J. C. Burant, S. S. Iyengar, J. Tomasi, 
 M. Cossi, N. Rega, J. M. Millam, M. Klene, J. E. Knox, J. B. Cross, 
 V. Bakken, C. Adamo, J. Jaramillo, R. Gomperts, R. E. Stratmann, 
 O. Yazyev, A. J. Austin, R. Cammi, C. Pomelli, J. W. Ochterski, 
 R. L. Martin, K. Morokuma, V. G. Zakrzewski, G. A. Voth, 
 P. Salvador, J. J. Dannenberg, S. Dapprich, A. D. Daniels, 
 O. Farkas, J. B. Foresman, J. V. Ortiz, J. Cioslowski, 
 and D. J. Fox, Gaussian, Inc., Wallingford CT, 2010.
 
 ******************************************
 Gaussian 09:  EM64L-G09RevC.01 23-Sep-2011
                24-Apr-2026 
 ******************************************
 %nprocshared=8
 Will use up to    8 processors via shared memory.
 %mem=14GB
 -----------------------------------
 # opt=modredundant b3lyp/6-31g(d,p)
 -----------------------------------
 1/14=-1,18=120,19=15,26=3,38=1/1,3;
 2/9=110,12=2,17=6,18=5,40=1/2;
 3/5=1,6=6,7=101,11=2,16=1,25=1,30=1,71=1,74=-5/1,2,3;
 4//1;
 5/5=2,38=5/2;
 6/7=2,8=2,9=2,10=2,28=1/1;
 7//1,2,3,16;
 1/14=-1,18=20,19=15/3(2);
 2/9=110/2;
 99//99;
 2/9=110/2;
 3/5=1,6=6,7=101,11=2,16=1,25=1,30=1,71=1,74=-5/1,2,3;
 4/5=5,16=3/1;
 5/5=2,38=5/2;
 7//1,2,3,16;
 1/14=-1,18=20,19=15/3(-5);
 2/9=110/2;
 6/7=2,8=2,9=2,10=2,19=2,28=1/1;
 99/9=1/99;
 ---------------
 QM dihedral opt
 ---------------
 Charge =  0 Multiplicity = 1
 Symbolic Z-Matrix:
 C                     0.82663   2.69486  -0.63836 
 C                    -0.14392   1.58427  -0.25264 
 O                    -1.32651   1.66176  -0.56919 
 N                     0.36078   0.51441   0.45172 
 C                    -0.50156  -0.54715   1.00001 
 C                    -2.02616  -0.4325    0.79904 
 O                    -2.70996  -0.01328   1.7243 
 N                    -2.56997  -1.00511  -0.32672 
 C                    -1.82934  -1.17155  -1.56639 
 C                    -4.01348  -0.8845   -0.48952 
 H                     0.27812   3.3867   -1.27629 
 H                     1.70413   2.32648  -1.17752 
 H                     1.17862   3.23724   0.24559 
 H                    -0.14897  -1.51814   0.6306 
 H                    -0.38299  -0.54744   2.08784 
 H                    -0.76798  -1.32768  -1.37267 
 H                    -2.20865  -2.0478   -2.10313 
 H                    -1.92793  -0.28732  -2.20872 
 H                    -4.38212  -1.72668  -1.08347 
 H                    -4.48088  -0.88905   0.49349 
 H                    -4.27916   0.05251  -0.99801 
 C                     1.76892   0.39151   0.82526 
 H                     2.23588   1.37428   0.89704 
 H                     1.83068  -0.05707   1.82223 
 C                     2.57323  -0.47255  -0.15023 
 H                     2.56685  -0.01793  -1.15562 
 H                     2.1172   -1.47277  -0.24489 
 O                     3.88641  -0.56316   0.35806 
 C                     4.74261  -1.34289  -0.45271 
 H                     5.72401  -1.34966   0.02636 
 H                     4.38386  -2.37967  -0.54523 
 H                     4.8427   -0.92065  -1.46459 
 
 The following ModRedundant input section has been read:
 D       2       4       5       6 F                                           
 D       4       5       6       8 S  36 10.000                                

 GradGradGradGradGradGradGradGradGradGradGradGradGradGradGradGradGradGrad
 Berny optimization.
 Initialization pass.
                           ----------------------------
                           !    Initial Parameters    !
                           ! (Angstroms and Degrees)  !
 --------------------------                            --------------------------
 ! Name  Definition              Value          Derivative Info.                !
 --------------------------------------------------------------------------------
 ! R1    R(1,2)                  1.5245         estimate D2E/DX2                !
 ! R2    R(1,11)                 1.0892         estimate D2E/DX2                !
 ! R3    R(1,12)                 1.0938         estimate D2E/DX2                !
 ! R4    R(1,13)                 1.0952         estimate D2E/DX2                !
 ! R5    R(2,3)                  1.2267         estimate D2E/DX2                !
 ! R6    R(2,4)                  1.3768         estimate D2E/DX2                !
 ! R7    R(4,5)                  1.4735         estimate D2E/DX2                !
 ! R8    R(4,22)                 1.462          estimate D2E/DX2                !
 ! R9    R(5,6)                  1.5421         estimate D2E/DX2                !
 ! R10   R(5,14)                 1.0971         estimate D2E/DX2                !
 ! R11   R(5,15)                 1.0943         estimate D2E/DX2                !
 ! R12   R(6,7)                  1.2245         estimate D2E/DX2                !
 ! R13   R(6,8)                  1.3751         estimate D2E/DX2                !
 ! R14   R(8,9)                  1.4536         estimate D2E/DX2                !
 ! R15   R(8,10)                 1.4577         estimate D2E/DX2                !
 ! R16   R(9,16)                 1.0901         estimate D2E/DX2                !
 ! R17   R(9,17)                 1.0953         estimate D2E/DX2                !
 ! R18   R(9,18)                 1.0973         estimate D2E/DX2                !
 ! R19   R(10,19)                1.0945         estimate D2E/DX2                !
 ! R20   R(10,20)                1.0885         estimate D2E/DX2                !
 ! R21   R(10,21)                1.0987         estimate D2E/DX2                !
 ! R22   R(22,23)                1.0904         estimate D2E/DX2                !
 ! R23   R(22,24)                1.095          estimate D2E/DX2                !
 ! R24   R(22,25)                1.5314         estimate D2E/DX2                !
 ! R25   R(25,26)                1.1034         estimate D2E/DX2                !
 ! R26   R(25,27)                1.1033         estimate D2E/DX2                !
 ! R27   R(25,28)                1.411          estimate D2E/DX2                !
 ! R28   R(28,29)                1.4137         estimate D2E/DX2                !
 ! R29   R(29,30)                1.0921         estimate D2E/DX2                !
 ! R30   R(29,31)                1.101          estimate D2E/DX2                !
 ! R31   R(29,32)                1.101          estimate D2E/DX2                !
 ! A1    A(2,1,11)             106.8754         estimate D2E/DX2                !
 ! A2    A(2,1,12)             112.9612         estimate D2E/DX2                !
 ! A3    A(2,1,13)             111.1725         estimate D2E/DX2                !
 ! A4    A(11,1,12)            109.2207         estimate D2E/DX2                !
 ! A5    A(11,1,13)            108.6626         estimate D2E/DX2                !
 ! A6    A(12,1,13)            107.8661         estimate D2E/DX2                !
 ! A7    A(1,2,3)              120.1618         estimate D2E/DX2                !
 ! A8    A(1,2,4)              117.5267         estimate D2E/DX2                !
 ! A9    A(3,2,4)              122.3115         estimate D2E/DX2                !
 ! A10   A(2,4,5)              122.39           estimate D2E/DX2                !
 ! A11   A(2,4,22)             123.3062         estimate D2E/DX2                !
 ! A12   A(5,4,22)             114.0818         estimate D2E/DX2                !
 ! A13   A(4,5,6)              118.4604         estimate D2E/DX2                !
 ! A14   A(4,5,14)             108.9201         estimate D2E/DX2                !
 ! A15   A(4,5,15)             107.86           estimate D2E/DX2                !
 ! A16   A(6,5,14)             109.8565         estimate D2E/DX2                !
 ! A17   A(6,5,15)             103.6928         estimate D2E/DX2                !
 ! A18   A(14,5,15)            107.438          estimate D2E/DX2                !
 ! A19   A(5,6,7)              118.625          estimate D2E/DX2                !
 ! A20   A(5,6,8)              117.8218         estimate D2E/DX2                !
 ! A21   A(7,6,8)              122.7056         estimate D2E/DX2                !
 ! A22   A(6,8,9)              122.981          estimate D2E/DX2                !
 ! A23   A(6,8,10)             116.6543         estimate D2E/DX2                !
 ! A24   A(9,8,10)             114.7579         estimate D2E/DX2                !
 ! A25   A(8,9,16)             111.156          estimate D2E/DX2                !
 ! A26   A(8,9,17)             109.4545         estimate D2E/DX2                !
 ! A27   A(8,9,18)             111.1709         estimate D2E/DX2                !
 ! A28   A(16,9,17)            108.0384         estimate D2E/DX2                !
 ! A29   A(16,9,18)            107.872          estimate D2E/DX2                !
 ! A30   A(17,9,18)            109.0673         estimate D2E/DX2                !
 ! A31   A(8,10,19)            109.2983         estimate D2E/DX2                !
 ! A32   A(8,10,20)            108.9066         estimate D2E/DX2                !
 ! A33   A(8,10,21)            111.2056         estimate D2E/DX2                !
 ! A34   A(19,10,20)           110.0133         estimate D2E/DX2                !
 ! A35   A(19,10,21)           108.8827         estimate D2E/DX2                !
 ! A36   A(20,10,21)           108.5235         estimate D2E/DX2                !
 ! A37   A(4,22,23)            110.7022         estimate D2E/DX2                !
 ! A38   A(4,22,24)            108.7469         estimate D2E/DX2                !
 ! A39   A(4,22,25)            112.9883         estimate D2E/DX2                !
 ! A40   A(23,22,24)           106.5665         estimate D2E/DX2                !
 ! A41   A(23,22,25)           108.9991         estimate D2E/DX2                !
 ! A42   A(24,22,25)           108.615          estimate D2E/DX2                !
 ! A43   A(22,25,26)           110.1755         estimate D2E/DX2                !
 ! A44   A(22,25,27)           110.4307         estimate D2E/DX2                !
 ! A45   A(22,25,28)           107.1912         estimate D2E/DX2                !
 ! A46   A(26,25,27)           107.0348         estimate D2E/DX2                !
 ! A47   A(26,25,28)           111.1038         estimate D2E/DX2                !
 ! A48   A(27,25,28)           110.9373         estimate D2E/DX2                !
 ! A49   A(25,28,29)           113.1092         estimate D2E/DX2                !
 ! A50   A(28,29,30)           107.2236         estimate D2E/DX2                !
 ! A51   A(28,29,31)           111.7309         estimate D2E/DX2                !
 ! A52   A(28,29,32)           111.754          estimate D2E/DX2                !
 ! A53   A(30,29,31)           108.8954         estimate D2E/DX2                !
 ! A54   A(30,29,32)           108.8955         estimate D2E/DX2                !
 ! A55   A(31,29,32)           108.2726         estimate D2E/DX2                !
 ! D1    D(11,1,2,3)            -6.1736         estimate D2E/DX2                !
 ! D2    D(11,1,2,4)           173.7971         estimate D2E/DX2                !
 ! D3    D(12,1,2,3)          -126.3158         estimate D2E/DX2                !
 ! D4    D(12,1,2,4)            53.6549         estimate D2E/DX2                !
 ! D5    D(13,1,2,3)           112.2571         estimate D2E/DX2                !
 ! D6    D(13,1,2,4)           -67.7721         estimate D2E/DX2                !
 ! D7    D(1,2,4,5)            173.4792         estimate D2E/DX2                !
 ! D8    D(1,2,4,22)            -0.7838         estimate D2E/DX2                !
 ! D9    D(3,2,4,5)             -6.5508         estimate D2E/DX2                !
 ! D10   D(3,2,4,22)           179.1863         estimate D2E/DX2                !
 ! D11   D(2,4,5,6)             -1.33           Frozen                          !
 ! D12   D(2,4,5,14)           125.1276         estimate D2E/DX2                !
 ! D13   D(2,4,5,15)          -118.5593         estimate D2E/DX2                !
 ! D14   D(22,4,5,6)           173.4196         estimate D2E/DX2                !
 ! D15   D(22,4,5,14)          -60.1228         estimate D2E/DX2                !
 ! D16   D(22,4,5,15)           56.1903         estimate D2E/DX2                !
 ! D17   D(2,4,22,23)           25.8056         estimate D2E/DX2                !
 ! D18   D(2,4,22,24)          142.5587         estimate D2E/DX2                !
 ! D19   D(2,4,22,25)          -96.7673         estimate D2E/DX2                !
 ! D20   D(5,4,22,23)         -148.8894         estimate D2E/DX2                !
 ! D21   D(5,4,22,24)          -32.1363         estimate D2E/DX2                !
 ! D22   D(5,4,22,25)           88.5378         estimate D2E/DX2                !
 ! D23   D(4,5,6,7)            -99.9266         estimate D2E/DX2                !
 ! D24   D(4,5,6,8)             90.3232         Scan                            !
 ! D25   D(14,5,6,7)           134.0656         estimate D2E/DX2                !
 ! D26   D(14,5,6,8)           -35.6846         estimate D2E/DX2                !
 ! D27   D(15,5,6,7)            19.488          estimate D2E/DX2                !
 ! D28   D(15,5,6,8)          -150.2622         estimate D2E/DX2                !
 ! D29   D(5,6,8,9)            -27.9794         estimate D2E/DX2                !
 ! D30   D(5,6,8,10)           179.8512         estimate D2E/DX2                !
 ! D31   D(7,6,8,9)            162.7179         estimate D2E/DX2                !
 ! D32   D(7,6,8,10)            10.5485         estimate D2E/DX2                !
 ! D33   D(6,8,9,16)            31.4581         estimate D2E/DX2                !
 ! D34   D(6,8,9,17)           150.7219         estimate D2E/DX2                !
 ! D35   D(6,8,9,18)           -88.725          estimate D2E/DX2                !
 ! D36   D(10,8,9,16)         -175.8954         estimate D2E/DX2                !
 ! D37   D(10,8,9,17)          -56.6315         estimate D2E/DX2                !
 ! D38   D(10,8,9,18)           63.9215         estimate D2E/DX2                !
 ! D39   D(6,8,10,19)         -152.7073         estimate D2E/DX2                !
 ! D40   D(6,8,10,20)          -32.4938         estimate D2E/DX2                !
 ! D41   D(6,8,10,21)           87.0501         estimate D2E/DX2                !
 ! D42   D(9,8,10,19)           52.8405         estimate D2E/DX2                !
 ! D43   D(9,8,10,20)          173.0541         estimate D2E/DX2                !
 ! D44   D(9,8,10,21)          -67.4021         estimate D2E/DX2                !
 ! D45   D(4,22,25,26)          61.8478         estimate D2E/DX2                !
 ! D46   D(4,22,25,27)         -56.1819         estimate D2E/DX2                !
 ! D47   D(4,22,25,28)        -177.1403         estimate D2E/DX2                !
 ! D48   D(23,22,25,26)        -61.6703         estimate D2E/DX2                !
 ! D49   D(23,22,25,27)       -179.7            estimate D2E/DX2                !
 ! D50   D(23,22,25,28)         59.3416         estimate D2E/DX2                !
 ! D51   D(24,22,25,26)       -177.4032         estimate D2E/DX2                !
 ! D52   D(24,22,25,27)         64.5672         estimate D2E/DX2                !
 ! D53   D(24,22,25,28)        -56.3913         estimate D2E/DX2                !
 ! D54   D(22,25,28,29)        179.8926         estimate D2E/DX2                !
 ! D55   D(26,25,28,29)        -59.6839         estimate D2E/DX2                !
 ! D56   D(27,25,28,29)         59.2551         estimate D2E/DX2                !
 ! D57   D(25,28,29,30)       -179.926          estimate D2E/DX2                !
 ! D58   D(25,28,29,31)        -60.6812         estimate D2E/DX2                !
 ! D59   D(25,28,29,32)         60.8157         estimate D2E/DX2                !
 --------------------------------------------------------------------------------
 Trust Radius=3.00D-01 FncErr=1.00D-07 GrdErr=1.00D-06
 Number of optimizations in scan=  37
 Number of steps in this run=    155 maximum allowed number of steps=    192.
 GradGradGradGradGradGradGradGradGradGradGradGradGradGradGradGradGradGrad

                          Input orientation:                          
 ---------------------------------------------------------------------
 Center     Atomic      Atomic             Coordinates (Angstroms)
 Number     Number       Type             X           Y           Z
 ---------------------------------------------------------------------
      1          6           0        0.826627    2.694858   -0.638359
      2          6           0       -0.143924    1.584274   -0.252638
      3          8           0       -1.326514    1.661760   -0.569186
      4          7           0        0.360777    0.514408    0.451717
      5          6           0       -0.501562   -0.547150    1.000012
      6          6           0       -2.026163   -0.432500    0.799037
      7          8           0       -2.709955   -0.013283    1.724295
      8          7           0       -2.569969   -1.005106   -0.326722
      9          6           0       -1.829343   -1.171551   -1.566392
     10          6           0       -4.013483   -0.884504   -0.489523
     11          1           0        0.278116    3.386695   -1.276292
     12          1           0        1.704127    2.326482   -1.177521
     13          1           0        1.178622    3.237239    0.245585
     14          1           0       -0.148972   -1.518142    0.630599
     15          1           0       -0.382985   -0.547444    2.087841
     16          1           0       -0.767984   -1.327682   -1.372672
     17          1           0       -2.208651   -2.047803   -2.103129
     18          1           0       -1.927926   -0.287319   -2.208715
     19          1           0       -4.382120   -1.726676   -1.083465
     20          1           0       -4.480882   -0.889053    0.493487
     21          1           0       -4.279162    0.052510   -0.998013
     22          6           0        1.768921    0.391513    0.825257
     23          1           0        2.235876    1.374280    0.897043
     24          1           0        1.830683   -0.057071    1.822233
     25          6           0        2.573229   -0.472552   -0.150234
     26          1           0        2.566851   -0.017927   -1.155615
     27          1           0        2.117204   -1.472769   -0.244890
     28          8           0        3.886406   -0.563155    0.358056
     29          6           0        4.742611   -1.342894   -0.452710
     30          1           0        5.724009   -1.349661    0.026362
     31          1           0        4.383860   -2.379665   -0.545225
     32          1           0        4.842700   -0.920646   -1.464593
 ---------------------------------------------------------------------
                    Distance matrix (angstroms):
                    1          2          3          4          5
     1  C    0.000000
     2  C    1.524515   0.000000
     3  O    2.389161   1.226673   0.000000
     4  N    2.481863   1.376754   2.281581   0.000000
     5  C    3.867682   2.498000   2.832351   1.473486   0.000000
     6  C    4.470446   2.952325   2.597589   2.591283   1.542058
     7  O    5.042179   3.611782   3.159072   3.365607   2.384659
     8  N    5.032267   3.549094   2.952481   3.391779   2.499651
     9  C    4.781688   3.487285   3.045473   3.422258   2.956232
    10  C    6.021682   4.596136   3.702649   4.687967   3.829636
    11  H    1.089248   2.115350   2.459723   3.353040   4.611355
    12  H    1.093802   2.195808   3.161758   2.782556   4.226639
    13  H    1.095187   2.174775   3.069478   2.850468   4.208774
    14  H    4.506819   3.225697   3.596925   2.103117   1.097092
    15  H    4.405434   3.174778   3.581986   2.087490   1.094273
    16  H    4.388944   3.181731   3.145522   2.827683   2.511940
    17  H    5.818187   4.569398   4.109988   4.437806   3.846504
    18  H    4.352811   3.242185   2.616995   3.599837   3.521073
    19  H    6.846833   5.441964   4.591591   5.465740   4.559703
    20  H    6.503472   5.048094   4.193562   5.041142   4.025972
    21  H    5.760246   4.472368   3.389942   4.883042   4.315317
    22  C    2.887125   2.498702   3.624875   1.462021   2.463071
    23  H    2.467259   2.651285   3.863042   2.110377   3.346052
    24  H    3.825670   3.301239   4.317541   2.089384   2.521030
    25  C    3.649845   3.409390   4.465289   2.496273   3.283743
    26  H    3.264221   3.275777   4.280600   2.780946   3.787078
    27  H    4.380585   3.802403   4.667937   2.742110   3.043762
    28  O    4.579273   4.607381   5.743219   3.687814   4.434707
    29  C    5.627863   5.699699   6.773167   4.844381   5.499542
    30  H    6.386262   6.566464   7.689812   5.693851   6.352146
    31  H    6.197852   6.024886   6.995860   5.055170   5.441803
    32  H    5.466569   5.710506   6.747576   5.081265   5.897026
                    6          7          8          9         10
     6  C    0.000000
     7  O    1.224507   0.000000
     8  N    1.375113   2.282538   0.000000
     9  C    2.485999   3.598011   1.453620   0.000000
    10  C    2.411252   2.712785   1.457663   2.452042   0.000000
    11  H    4.919649   5.430648   5.319886   5.030223   6.105732
    12  H    5.043196   5.777470   5.485548   4.987270   6.593545
    13  H    4.903462   5.279537   5.690076   5.636359   6.669865
    14  H    2.175048   3.165344   2.653469   2.787569   4.073158
    15  H    2.091474   2.415012   3.289752   3.979306   4.465079
    16  H    2.664711   3.884598   2.108368   1.090132   3.392583
    17  H    3.326420   4.363456   2.091265   1.095344   2.685965
    18  H    3.012856   4.019357   2.114080   1.097344   2.767995
    19  H    3.281652   3.689901   2.092179   2.656700   1.094493
    20  H    2.515442   2.327669   2.082738   3.369505   1.088481
    21  H    2.922435   3.142881   2.119086   2.796961   1.098700
    22  C    3.883600   4.586116   4.701443   4.594634   6.065728
    23  H    4.630231   5.202972   5.500475   5.392196   6.788163
    24  H    4.007884   4.541905   4.988238   5.110835   6.339017
    25  C    4.696502   5.624662   5.173707   4.677258   6.608298
    26  H    5.008823   6.011538   5.296084   4.563563   6.670489
    27  H    4.397662   5.413802   4.711157   4.172809   6.163702
    28  O    5.930431   6.758768   6.507612   6.061636   7.951723
    29  C    6.943485   7.877053   7.321462   6.667850   8.768162
    30  H    7.842409   8.706356   8.308638   7.721510   9.762236
    31  H    6.832780   7.814902   7.091748   6.411413   8.529594
    32  H    7.248695   8.248328   7.499970   6.677535   8.909772
                   11         12         13         14         15
    11  H    0.000000
    12  H    1.779695   0.000000
    13  H    1.774643   1.769425   0.000000
    14  H    5.279779   4.635128   4.952211   0.000000
    15  H    5.218419   4.824736   4.489582   1.766514   0.000000
    16  H    4.830007   4.416144   5.219821   2.105361   3.568213
    17  H    6.033360   5.941460   6.702369   3.463537   4.811275
    18  H    4.385706   4.592072   5.300636   3.569497   4.573281
    19  H    6.921094   7.312957   7.571570   4.571766   5.238402
    20  H    6.637936   7.168422   7.008404   4.379497   4.410377
    21  H    5.653584   6.403352   6.440221   4.709331   5.006260
    22  C    3.950965   2.785574   2.963550   2.713483   2.665794
    23  H    3.550496   2.343771   2.238928   3.758271   3.459690
    24  H    4.885780   3.833519   3.709917   2.733817   2.282836
    25  C    4.629183   3.105680   3.982983   3.018830   3.708610
    26  H    4.104183   2.498205   3.806133   3.580070   4.416099
    27  H    5.297209   3.933795   4.827595   2.429834   3.542429
    28  O    5.593940   3.933235   4.667734   4.155786   4.606528
    29  C    6.555838   4.818927   5.845276   5.013168   5.775714
    30  H    7.334012   5.578782   6.461289   5.906386   6.495277
    31  H    7.116354   5.452393   6.515255   4.761444   5.745684
    32  H    6.278859   4.525140   5.799843   5.446432   6.329838
                   16         17         18         19         20
    16  H    0.000000
    17  H    1.768520   0.000000
    18  H    1.768273   1.785850   0.000000
    19  H    3.647577   2.422149   3.059576   0.000000
    20  H    4.178583   3.639801   3.765842   1.788335   0.000000
    21  H    3.791262   3.149542   2.666382   1.784210   1.775332
    22  C    3.771261   5.508792   4.830370   6.779768   6.388267
    23  H    4.634154   6.361250   5.453796   7.572068   7.099322
    24  H    4.309865   5.973918   5.516221   7.059007   6.503354
    25  C    3.659140   5.400147   4.952984   7.128859   7.095656
    26  H    3.589387   5.274808   4.624350   7.156342   7.290332
    27  H    3.101170   4.743073   4.650266   6.558116   6.664883
    28  O    5.024268   6.738793   6.361671   8.473505   8.374727
    29  C    5.586879   7.179194   6.978098   9.154554   9.283000
    30  H    6.641066   8.243132   8.042154  10.173873  10.225955
    31  H    5.322860   6.782212   6.854470   8.806731   9.049005
    32  H    5.626180   7.169363   6.840775   9.267807   9.527028
                   21         22         23         24         25
    21  H    0.000000
    22  C    6.326021   0.000000
    23  H    6.912600   1.090427   0.000000
    24  H    6.730230   1.094990   1.751834   0.000000
    25  C    6.924571   1.531373   2.149741   2.148168   0.000000
    26  H    6.848189   2.174440   2.502237   3.067744   1.103411
    27  H    6.618698   2.177628   3.069818   2.521764   1.103337
    28  O    8.300269   2.369264   2.601617   2.574089   1.411029
    29  C    9.145321   3.672084   3.935554   3.912548   2.356948
    30  H   10.152776   4.394615   4.510545   4.478161   3.275351
    31  H    9.009353   4.049142   4.559175   4.185453   2.659226
    32  H    9.185483   4.051332   4.199945   4.541061   2.660606
                   26         27         28         29         30
    26  H    0.000000
    27  H    1.774308   0.000000
    28  O    2.080793   2.078706   0.000000
    29  C    2.642640   2.636820   1.413655   0.000000
    30  H    3.624670   3.619085   2.026178   1.092107   0.000000
    31  H    3.041694   2.459754   2.088800   1.100979   1.784270
    32  H    2.467764   3.036584   2.089102   1.101008   1.784294
                   31         32
    31  H    0.000000
    32  H    1.784519   0.000000
 Stoichiometry    C9H18N2O3
 Framework group  C1[X(C9H18N2O3)]
 Deg. of freedom    90
 Full point group                 C1      NOp   1
 Largest Abelian subgroup         C1      NOp   1
 Largest concise Abelian subgroup C1      NOp   1
                         Standard orientation:                         
 ---------------------------------------------------------------------
 Center     Atomic      Atomic             Coordinates (Angstroms)
 Number     Number       Type             X           Y           Z
 ---------------------------------------------------------------------
      1          6           0        0.826627    2.694858   -0.638359
      2          6           0       -0.143924    1.584274   -0.252638
      3          8           0       -1.326514    1.661760   -0.569186
      4          7           0        0.360777    0.514408    0.451717
      5          6           0       -0.501562   -0.547150    1.000012
      6          6           0       -2.026163   -0.432500    0.799037
      7          8           0       -2.709955   -0.013283    1.724295
      8          7           0       -2.569969   -1.005106   -0.326722
      9          6           0       -1.829343   -1.171551   -1.566392
     10          6           0       -4.013483   -0.884504   -0.489523
     11          1           0        0.278116    3.386695   -1.276292
     12          1           0        1.704127    2.326482   -1.177521
     13          1           0        1.178622    3.237239    0.245585
     14          1           0       -0.148972   -1.518142    0.630599
     15          1           0       -0.382985   -0.547444    2.087841
     16          1           0       -0.767984   -1.327682   -1.372672
     17          1           0       -2.208651   -2.047803   -2.103129
     18          1           0       -1.927926   -0.287319   -2.208715
     19          1           0       -4.382120   -1.726676   -1.083465
     20          1           0       -4.480882   -0.889053    0.493487
     21          1           0       -4.279162    0.052510   -0.998013
     22          6           0        1.768921    0.391513    0.825257
     23          1           0        2.235876    1.374280    0.897043
     24          1           0        1.830683   -0.057071    1.822233
     25          6           0        2.573229   -0.472552   -0.150234
     26          1           0        2.566851   -0.017927   -1.155615
     27          1           0        2.117204   -1.472769   -0.244890
     28          8           0        3.886406   -0.563155    0.358056
     29          6           0        4.742611   -1.342894   -0.452710
     30          1           0        5.724009   -1.349661    0.026362
     31          1           0        4.383860   -2.379665   -0.545225
     32          1           0        4.842700   -0.920646   -1.464593
 ---------------------------------------------------------------------
 Rotational constants (GHZ):      1.1188137      0.3399381      0.3110770
 Standard basis: 6-31G(d,p) (6D, 7F)
 There are   300 symmetry adapted basis functions of A   symmetry.
 Integral buffers will be    131072 words long.
 Raffenetti 2 integral format.
 Two-electron integral symmetry is turned on.
   300 basis functions,   518 primitive gaussians,   300 cartesian basis functions
    55 alpha electrons       55 beta electrons
       nuclear repulsion energy       974.4769743723 Hartrees.
 NAtoms=   32 NActive=   32 NUniq=   32 SFac= 1.00D+00 NAtFMM=   60 NAOKFM=F Big=F
 One-electron integrals computed using PRISM.
 NBasis=   300 RedAO= T  NBF=   300
 NBsUse=   300 1.00D-06 NBFU=   300
 Harris functional with IExCor=  402 diagonalized for initial guess.
 ExpMin= 1.61D-01 ExpMax= 5.48D+03 ExpMxC= 8.25D+02 IAcc=1 IRadAn=         1 AccDes= 0.00D+00
 HarFok:  IExCor=  402 AccDes= 0.00D+00 IRadAn=         1 IDoV= 1
 ScaDFX=  1.000000  1.000000  1.000000  1.000000
 FoFCou: FMM=F IPFlag=           0 FMFlag=      100000 FMFlg1=           0
         NFxFlg=           0 DoJE=T BraDBF=F KetDBF=T FulRan=T
         Omega=  0.000000  0.000000  1.000000  0.000000  0.000000 ICntrl=     500 IOpCl=  0
         NMat0=    1 NMatS0=    1 NMatT0=    0 NMatD0=    1 NMtDS0=    0 NMtDT0=    0
         I1Cent=           4 NGrid=           0.
 Petite list used in FoFCou.
 Initial guess orbital symmetries:
       Occupied  (A) (A) (A) (A) (A) (A) (A) (A) (A) (A) (A) (A)
                 (A) (A) (A) (A) (A) (A) (A) (A) (A) (A) (A) (A)
                 (A) (A) (A) (A) (A) (A) (A) (A) (A) (A) (A) (A)
                 (A) (A) (A) (A) (A) (A) (A) (A) (A) (A) (A) (A)
                 (A) (A) (A) (A) (A) (A) (A)
       Virtual   (A) (A) (A) (A) (A) (A) (A) (A) (A) (A) (A) (A)
                 (A) (A) (A) (A) (A) (A) (A) (A) (A) (A) (A) (A)
                 (A) (A) (A) (A) (A) (A) (A) (A) (A) (A) (A) (A)
                 (A) (A) (A) (A) (A) (A) (A) (A) (A) (A) (A) (A)
                 (A) (A) (A) (A) (A) (A) (A) (A) (A) (A) (A) (A)
                 (A) (A) (A) (A) (A) (A) (A) (A) (A) (A) (A) (A)
                 (A) (A) (A) (A) (A) (A) (A) (A) (A) (A) (A) (A)
                 (A) (A) (A) (A) (A) (A) (A) (A) (A) (A) (A) (A)
                 (A) (A) (A) (A) (A) (A) (A) (A) (A) (A) (A) (A)
                 (A) (A) (A) (A) (A) (A) (A) (A) (A) (A) (A) (A)
                 (A) (A) (A) (A) (A) (A) (A) (A) (A) (A) (A) (A)
                 (A) (A) (A) (A) (A) (A) (A) (A) (A) (A) (A) (A)
                 (A) (A) (A) (A) (A) (A) (A) (A) (A) (A) (A) (A)
                 (A) (A) (A) (A) (A) (A) (A) (A) (A) (A) (A) (A)
                 (A) (A) (A) (A) (A) (A) (A) (A) (A) (A) (A) (A)
                 (A) (A) (A) (A) (A) (A) (A) (A) (A) (A) (A) (A)
                 (A) (A) (A) (A) (A) (A) (A) (A) (A) (A) (A) (A)
                 (A) (A) (A) (A) (A) (A) (A) (A) (A) (A) (A) (A)
                 (A) (A) (A) (A) (A) (A) (A) (A) (A) (A) (A) (A)
                 (A) (A) (A) (A) (A) (A) (A) (A) (A) (A) (A) (A)
                 (A) (A) (A) (A) (A)
 The electronic state of the initial guess is 1-A.
 Requested convergence on RMS density matrix=1.00D-08 within 128 cycles.
 Requested convergence on MAX density matrix=1.00D-06.
 Requested convergence on             energy=1.00D-06.
 No special actions if energy rises.
 Keep R1 ints in memory in canonical form, NReq=1033484206.
 Integral accuracy reduced to 1.0D-05 until final iterations.
 Initial convergence to 1.0D-05 achieved.  Increase integral accuracy.
 SCF Done:  E(RB3LYP) =  -688.986854726     A.U. after   14 cycles
             Convg  =    0.9192D-08             -V/T =  2.0093

 **********************************************************************

            Population analysis using the SCF density.

 **********************************************************************

 Orbital symmetries:
       Occupied  (A) (A) (A) (A) (A) (A) (A) (A) (A) (A) (A) (A)
                 (A) (A) (A) (A) (A) (A) (A) (A) (A) (A) (A) (A)
                 (A) (A) (A) (A) (A) (A) (A) (A) (A) (A) (A) (A)
                 (A) (A) (A) (A) (A) (A) (A) (A) (A) (A) (A) (A)
                 (A) (A) (A) (A) (A) (A) (A)
       Virtual   (A) (A) (A) (A) (A) (A) (A) (A) (A) (A) (A) (A)
                 (A) (A) (A) (A) (A) (A) (A) (A) (A) (A) (A) (A)
                 (A) (A) (A) (A) (A) (A) (A) (A) (A) (A) (A) (A)
                 (A) (A) (A) (A) (A) (A) (A) (A) (A) (A) (A) (A)
                 (A) (A) (A) (A) (A) (A) (A) (A) (A) (A) (A) (A)
                 (A) (A) (A) (A) (A) (A) (A) (A) (A) (A) (A) (A)
                 (A) (A) (A) (A) (A) (A) (A) (A) (A) (A) (A) (A)
                 (A) (A) (A) (A) (A) (A) (A) (A) (A) (A) (A) (A)
                 (A) (A) (A) (A) (A) (A) (A) (A) (A) (A) (A) (A)
                 (A) (A) (A) (A) (A) (A) (A) (A) (A) (A) (A) (A)
                 (A) (A) (A) (A) (A) (A) (A) (A) (A) (A) (A) (A)
                 (A) (A) (A) (A) (A) (A) (A) (A) (A) (A) (A) (A)
                 (A) (A) (A) (A) (A) (A) (A) (A) (A) (A) (A) (A)
                 (A) (A) (A) (A) (A) (A) (A) (A) (A) (A) (A) (A)
                 (A) (A) (A) (A) (A) (A) (A) (A) (A) (A) (A) (A)
                 (A) (A) (A) (A) (A) (A) (A) (A) (A) (A) (A) (A)
                 (A) (A) (A) (A) (A) (A) (A) (A) (A) (A) (A) (A)
                 (A) (A) (A) (A) (A) (A) (A) (A) (A) (A) (A) (A)
                 (A) (A) (A) (A) (A) (A) (A) (A) (A) (A) (A) (A)
                 (A) (A) (A) (A) (A) (A) (A) (A) (A) (A) (A) (A)
                 (A) (A) (A) (A) (A)
 The electronic state is 1-A.
 Alpha  occ. eigenvalues --  -19.16442 -19.11340 -19.09630 -14.37477 -14.35050
 Alpha  occ. eigenvalues --  -10.29202 -10.27673 -10.24923 -10.24047 -10.23525
 Alpha  occ. eigenvalues --  -10.23060 -10.21365 -10.19906 -10.19528  -1.04847
 Alpha  occ. eigenvalues --   -1.03632  -1.01654  -0.94006  -0.91897  -0.77688
 Alpha  occ. eigenvalues --   -0.76020  -0.72083  -0.70761  -0.68741  -0.66988
 Alpha  occ. eigenvalues --   -0.63392  -0.56978  -0.53008  -0.51456  -0.50591
 Alpha  occ. eigenvalues --   -0.48931  -0.48784  -0.46925  -0.46107  -0.45899
 Alpha  occ. eigenvalues --   -0.45593  -0.44316  -0.43035  -0.42356  -0.40226
 Alpha  occ. eigenvalues --   -0.39804  -0.39385  -0.39228  -0.38957  -0.38168
 Alpha  occ. eigenvalues --   -0.36884  -0.36645  -0.35878  -0.34803  -0.33465
 Alpha  occ. eigenvalues --   -0.27134  -0.25095  -0.24904  -0.23813  -0.22286
 Alpha virt. eigenvalues --    0.02236   0.02716   0.06575   0.07927   0.08918
 Alpha virt. eigenvalues --    0.10891   0.11820   0.12179   0.13391   0.14222
 Alpha virt. eigenvalues --    0.15192   0.15539   0.15710   0.15979   0.16702
 Alpha virt. eigenvalues --    0.16894   0.17554   0.17849   0.18893   0.19330
 Alpha virt. eigenvalues --    0.20497   0.20680   0.21135   0.21763   0.22716
 Alpha virt. eigenvalues --    0.24111   0.25070   0.26487   0.29606   0.33000
 Alpha virt. eigenvalues --    0.34743   0.38476   0.40581   0.47731   0.48103
 Alpha virt. eigenvalues --    0.49998   0.50559   0.51475   0.53143   0.53733
 Alpha virt. eigenvalues --    0.54655   0.55197   0.55446   0.55663   0.57202
 Alpha virt. eigenvalues --    0.59093   0.60319   0.62933   0.64197   0.64924
 Alpha virt. eigenvalues --    0.65836   0.67652   0.68999   0.69652   0.72280
 Alpha virt. eigenvalues --    0.73276   0.74156   0.75538   0.75869   0.76461
 Alpha virt. eigenvalues --    0.78294   0.79199   0.80088   0.81973   0.82199
 Alpha virt. eigenvalues --    0.83051   0.84392   0.84943   0.85349   0.87137
 Alpha virt. eigenvalues --    0.87278   0.88398   0.89094   0.89820   0.90835
 Alpha virt. eigenvalues --    0.90974   0.92228   0.92866   0.94072   0.94621
 Alpha virt. eigenvalues --    0.96148   0.96618   0.98072   0.98753   1.00254
 Alpha virt. eigenvalues --    1.01249   1.03901   1.05226   1.06057   1.09449
 Alpha virt. eigenvalues --    1.11307   1.15571   1.17772   1.18444   1.22328
 Alpha virt. eigenvalues --    1.24099   1.28016   1.30165   1.33285   1.34011
 Alpha virt. eigenvalues --    1.35943   1.35975   1.36739   1.39240   1.40284
 Alpha virt. eigenvalues --    1.42988   1.45458   1.47597   1.50473   1.54673
 Alpha virt. eigenvalues --    1.55664   1.57167   1.60360   1.65335   1.66113
 Alpha virt. eigenvalues --    1.68616   1.69112   1.70658   1.72163   1.75248
 Alpha virt. eigenvalues --    1.76371   1.78633   1.80152   1.80980   1.83257
 Alpha virt. eigenvalues --    1.84185   1.84524   1.86663   1.86993   1.87989
 Alpha virt. eigenvalues --    1.89044   1.89946   1.93618   1.94297   1.95123
 Alpha virt. eigenvalues --    1.96193   1.96728   1.97428   1.98905   1.99394
 Alpha virt. eigenvalues --    2.01045   2.01632   2.02196   2.02518   2.03674
 Alpha virt. eigenvalues --    2.03892   2.04466   2.04849   2.07126   2.07506
 Alpha virt. eigenvalues --    2.08621   2.09082   2.10313   2.11309   2.11964
 Alpha virt. eigenvalues --    2.13497   2.14726   2.18195   2.18498   2.18955
 Alpha virt. eigenvalues --    2.21439   2.22720   2.24820   2.27962   2.28421
 Alpha virt. eigenvalues --    2.30572   2.32308   2.35923   2.36856   2.39148
 Alpha virt. eigenvalues --    2.43109   2.43769   2.46950   2.49161   2.51121
 Alpha virt. eigenvalues --    2.51492   2.54011   2.55311   2.56392   2.57154
 Alpha virt. eigenvalues --    2.58879   2.60911   2.62374   2.62853   2.65722
 Alpha virt. eigenvalues --    2.66113   2.67560   2.68417   2.70290   2.71500
 Alpha virt. eigenvalues --    2.71954   2.73611   2.73891   2.76808   2.77607
 Alpha virt. eigenvalues --    2.79795   2.83555   2.83967   2.84962   2.85763
 Alpha virt. eigenvalues --    2.86739   2.88297   2.89573   2.91398   2.93042
 Alpha virt. eigenvalues --    2.95876   2.96835   3.00880   3.04374   3.09683
 Alpha virt. eigenvalues --    3.10790   3.12519   3.16222   3.16823   3.19938
 Alpha virt. eigenvalues --    3.22072   3.24544   3.26479   3.34343   3.35506
 Alpha virt. eigenvalues --    3.37251   3.40425   3.41516   3.42085   3.42900
 Alpha virt. eigenvalues --    3.43637   3.45362   3.45814   3.47770   3.51489
 Alpha virt. eigenvalues --    3.54231   3.94541   4.02918   4.05606   4.12283
 Alpha virt. eigenvalues --    4.22092   4.32230   4.35781   4.42240   4.45164
 Alpha virt. eigenvalues --    4.51971   4.53888   4.58383   4.69287   4.74232
          Condensed to atoms (all electrons):
              1          2          3          4          5          6
     1  C    5.155601   0.348782  -0.077109  -0.123685   0.004993   0.000366
     2  C    0.348782   4.369965   0.558647   0.264687  -0.034186   0.003324
     3  O   -0.077109   0.558647   8.090536  -0.087864  -0.010035   0.028479
     4  N   -0.123685   0.264687  -0.087864   7.112236   0.256619  -0.025858
     5  C    0.004993  -0.034186  -0.010035   0.256619   5.061576   0.323005
     6  C    0.000366   0.003324   0.028479  -0.025858   0.323005   4.356494
     7  O   -0.000026   0.001171  -0.004677   0.000653  -0.077160   0.571600
     8  N   -0.000070  -0.001533  -0.010895   0.002316  -0.107627   0.261108
     9  C    0.000095   0.001870   0.001655  -0.003363  -0.001429  -0.024714
    10  C   -0.000001  -0.000012  -0.000625  -0.000102   0.006435  -0.032253
    11  H    0.368199  -0.023095   0.005386   0.004599  -0.000116  -0.000008
    12  H    0.358840  -0.021750   0.001785   0.001954  -0.000046  -0.000013
    13  H    0.364447  -0.021511   0.000914   0.002411  -0.000117  -0.000009
    14  H   -0.000187   0.001266   0.000466  -0.050810   0.348281  -0.026843
    15  H   -0.000135   0.001397   0.000446  -0.039137   0.368977  -0.022797
    16  H   -0.000058   0.000295  -0.001637   0.002299   0.007312  -0.008530
    17  H    0.000001  -0.000009   0.000267   0.000023  -0.000413   0.002582
    18  H    0.000111   0.001229   0.006863  -0.000734  -0.000178  -0.001407
    19  H    0.000000  -0.000002  -0.000008   0.000000  -0.000155   0.004334
    20  H    0.000000  -0.000008  -0.000004  -0.000002   0.000708  -0.004440
    21  H    0.000004   0.000005   0.001331   0.000001  -0.000116  -0.001368
    22  C    0.001591  -0.021092   0.002807   0.245567  -0.040921   0.002723
    23  H    0.007711  -0.008980   0.000093  -0.029050   0.003562  -0.000107
    24  H   -0.000237   0.002631  -0.000079  -0.035760  -0.001520   0.000062
    25  C   -0.001886  -0.000985  -0.000016  -0.053467  -0.002452  -0.000056
    26  H   -0.000842   0.001964  -0.000055   0.002892   0.000028   0.000000
    27  H    0.000117  -0.000224   0.000000   0.001475   0.000976  -0.000032
    28  O    0.000011   0.000012   0.000000   0.002128  -0.000014   0.000000
    29  C    0.000001  -0.000002   0.000000  -0.000128   0.000000   0.000000
    30  H    0.000000   0.000000   0.000000   0.000001   0.000000   0.000000
    31  H    0.000000   0.000000   0.000000   0.000011  -0.000002   0.000000
    32  H   -0.000001   0.000000   0.000000   0.000009   0.000000   0.000000
              7          8          9         10         11         12
     1  C   -0.000026  -0.000070   0.000095  -0.000001   0.368199   0.358840
     2  C    0.001171  -0.001533   0.001870  -0.000012  -0.023095  -0.021750
     3  O   -0.004677  -0.010895   0.001655  -0.000625   0.005386   0.001785
     4  N    0.000653   0.002316  -0.003363  -0.000102   0.004599   0.001954
     5  C   -0.077160  -0.107627  -0.001429   0.006435  -0.000116  -0.000046
     6  C    0.571600   0.261108  -0.024714  -0.032253  -0.000008  -0.000013
     7  O    8.094063  -0.093048   0.002762  -0.005712   0.000001   0.000000
     8  N   -0.093048   7.015182   0.293298   0.299384   0.000002   0.000003
     9  C    0.002762   0.293298   4.807856  -0.051680  -0.000006  -0.000007
    10  C   -0.005712   0.299384  -0.051680   4.806766   0.000000   0.000000
    11  H    0.000001   0.000002  -0.000006   0.000000   0.541967  -0.023059
    12  H    0.000000   0.000003  -0.000007   0.000000  -0.023059   0.587550
    13  H    0.000002   0.000000   0.000000   0.000000  -0.020819  -0.029602
    14  H    0.002910   0.005528  -0.002293  -0.000084   0.000004   0.000009
    15  H    0.005621   0.004387   0.000213  -0.000169   0.000002  -0.000006
    16  H    0.000033  -0.030375   0.380990   0.004680   0.000001   0.000010
    17  H   -0.000082  -0.042334   0.380448  -0.004366   0.000000   0.000000
    18  H    0.000091  -0.045787   0.380763  -0.001044   0.000008  -0.000015
    19  H    0.000764  -0.041841  -0.002790   0.378106   0.000000   0.000000
    20  H    0.018268  -0.034431   0.004729   0.385868   0.000000   0.000000
    21  H    0.001003  -0.047354  -0.002061   0.388287   0.000000   0.000000
    22  C   -0.000089  -0.000152   0.000112   0.000003   0.000332  -0.001131
    23  H    0.000003   0.000003  -0.000005   0.000000   0.000032  -0.002454
    24  H   -0.000017  -0.000005  -0.000011   0.000000  -0.000010   0.000214
    25  C    0.000000   0.000000   0.000001   0.000000   0.000017  -0.000195
    26  H    0.000000   0.000000  -0.000028   0.000000  -0.000041   0.003905
    27  H    0.000000   0.000009  -0.000123   0.000000   0.000001  -0.000105
    28  O    0.000000   0.000000   0.000000   0.000000   0.000000  -0.000072
    29  C    0.000000   0.000000   0.000000   0.000000   0.000000  -0.000004
    30  H    0.000000   0.000000   0.000000   0.000000   0.000000   0.000000
    31  H    0.000000   0.000000   0.000000   0.000000   0.000000   0.000000
    32  H    0.000000   0.000000   0.000000   0.000000   0.000000   0.000006
             13         14         15         16         17         18
     1  C    0.364447  -0.000187  -0.000135  -0.000058   0.000001   0.000111
     2  C   -0.021511   0.001266   0.001397   0.000295  -0.000009   0.001229
     3  O    0.000914   0.000466   0.000446  -0.001637   0.000267   0.006863
     4  N    0.002411  -0.050810  -0.039137   0.002299   0.000023  -0.000734
     5  C   -0.000117   0.348281   0.368977   0.007312  -0.000413  -0.000178
     6  C   -0.000009  -0.026843  -0.022797  -0.008530   0.002582  -0.001407
     7  O    0.000002   0.002910   0.005621   0.000033  -0.000082   0.000091
     8  N    0.000000   0.005528   0.004387  -0.030375  -0.042334  -0.045787
     9  C    0.000000  -0.002293   0.000213   0.380990   0.380448   0.380763
    10  C    0.000000  -0.000084  -0.000169   0.004680  -0.004366  -0.001044
    11  H   -0.020819   0.000004   0.000002   0.000001   0.000000   0.000008
    12  H   -0.029602   0.000009  -0.000006   0.000010   0.000000  -0.000015
    13  H    0.565800  -0.000006   0.000019   0.000001   0.000000   0.000000
    14  H   -0.000006   0.652075  -0.042028  -0.003323   0.000111   0.000454
    15  H    0.000019  -0.042028   0.581362   0.000365   0.000006  -0.000052
    16  H    0.000001  -0.003323   0.000365   0.604142  -0.028223  -0.034854
    17  H    0.000000   0.000111   0.000006  -0.028223   0.624458  -0.043765
    18  H    0.000000   0.000454  -0.000052  -0.034854  -0.043765   0.599408
    19  H    0.000000  -0.000023   0.000006   0.000149   0.006010  -0.001739
    20  H    0.000000  -0.000061  -0.000012  -0.000237   0.000137  -0.000239
    21  H    0.000000   0.000005  -0.000004  -0.000177  -0.001584   0.007127
    22  C   -0.003500   0.001811  -0.007984  -0.000525   0.000002  -0.000012
    23  H    0.002151  -0.000090   0.000558   0.000011   0.000000   0.000000
    24  H    0.000163  -0.003102   0.007200   0.000037   0.000000  -0.000001
    25  C    0.000137   0.001444  -0.000750   0.000303  -0.000003   0.000003
    26  H    0.000060  -0.000194   0.000000   0.000178   0.000000  -0.000001
    27  H   -0.000007   0.002405   0.000275   0.000841   0.000005  -0.000010
    28  O   -0.000005  -0.000130   0.000009   0.000001   0.000000   0.000000
    29  C    0.000000   0.000005   0.000000   0.000000   0.000000   0.000000
    30  H    0.000000   0.000000   0.000000   0.000000   0.000000   0.000000
    31  H    0.000000   0.000002   0.000000   0.000001   0.000000   0.000000
    32  H    0.000000   0.000000   0.000000   0.000000   0.000000   0.000000
             19         20         21         22         23         24
     1  C    0.000000   0.000000   0.000004   0.001591   0.007711  -0.000237
     2  C   -0.000002  -0.000008   0.000005  -0.021092  -0.008980   0.002631
     3  O   -0.000008  -0.000004   0.001331   0.002807   0.000093  -0.000079
     4  N    0.000000  -0.000002   0.000001   0.245567  -0.029050  -0.035760
     5  C   -0.000155   0.000708  -0.000116  -0.040921   0.003562  -0.001520
     6  C    0.004334  -0.004440  -0.001368   0.002723  -0.000107   0.000062
     7  O    0.000764   0.018268   0.001003  -0.000089   0.000003  -0.000017
     8  N   -0.041841  -0.034431  -0.047354  -0.000152   0.000003  -0.000005
     9  C   -0.002790   0.004729  -0.002061   0.000112  -0.000005  -0.000011
    10  C    0.378106   0.385868   0.388287   0.000003   0.000000   0.000000
    11  H    0.000000   0.000000   0.000000   0.000332   0.000032  -0.000010
    12  H    0.000000   0.000000   0.000000  -0.001131  -0.002454   0.000214
    13  H    0.000000   0.000000   0.000000  -0.003500   0.002151   0.000163
    14  H   -0.000023  -0.000061   0.000005   0.001811  -0.000090  -0.003102
    15  H    0.000006  -0.000012  -0.000004  -0.007984   0.000558   0.007200
    16  H    0.000149  -0.000237  -0.000177  -0.000525   0.000011   0.000037
    17  H    0.006010   0.000137  -0.001584   0.000002   0.000000   0.000000
    18  H   -0.001739  -0.000239   0.007127  -0.000012   0.000000  -0.000001
    19  H    0.626770  -0.023581  -0.043486   0.000000   0.000000   0.000000
    20  H   -0.023581   0.534480  -0.030706   0.000000   0.000000   0.000000
    21  H   -0.043486  -0.030706   0.605528   0.000000   0.000000   0.000000
    22  C    0.000000   0.000000   0.000000   4.906671   0.376722   0.376313
    23  H    0.000000   0.000000   0.000000   0.376722   0.590772  -0.030164
    24  H    0.000000   0.000000   0.000000   0.376313  -0.030164   0.601487
    25  C    0.000000   0.000000   0.000000   0.361257  -0.042498  -0.048640
    26  H    0.000000   0.000000   0.000000  -0.040174  -0.008758   0.006726
    27  H    0.000000   0.000000   0.000000  -0.040084   0.006510  -0.007888
    28  O    0.000000   0.000000   0.000000  -0.040137   0.005590   0.006267
    29  C    0.000000   0.000000   0.000000   0.004531  -0.000084  -0.000108
    30  H    0.000000   0.000000   0.000000  -0.000256   0.000008   0.000009
    31  H    0.000000   0.000000   0.000000   0.000030   0.000047  -0.000058
    32  H    0.000000   0.000000   0.000000   0.000020  -0.000067   0.000049
             25         26         27         28         29         30
     1  C   -0.001886  -0.000842   0.000117   0.000011   0.000001   0.000000
     2  C   -0.000985   0.001964  -0.000224   0.000012  -0.000002   0.000000
     3  O   -0.000016  -0.000055   0.000000   0.000000   0.000000   0.000000
     4  N   -0.053467   0.002892   0.001475   0.002128  -0.000128   0.000001
     5  C   -0.002452   0.000028   0.000976  -0.000014   0.000000   0.000000
     6  C   -0.000056   0.000000  -0.000032   0.000000   0.000000   0.000000
     7  O    0.000000   0.000000   0.000000   0.000000   0.000000   0.000000
     8  N    0.000000   0.000000   0.000009   0.000000   0.000000   0.000000
     9  C    0.000001  -0.000028  -0.000123   0.000000   0.000000   0.000000
    10  C    0.000000   0.000000   0.000000   0.000000   0.000000   0.000000
    11  H    0.000017  -0.000041   0.000001   0.000000   0.000000   0.000000
    12  H   -0.000195   0.003905  -0.000105  -0.000072  -0.000004   0.000000
    13  H    0.000137   0.000060  -0.000007  -0.000005   0.000000   0.000000
    14  H    0.001444  -0.000194   0.002405  -0.000130   0.000005   0.000000
    15  H   -0.000750   0.000000   0.000275   0.000009   0.000000   0.000000
    16  H    0.000303   0.000178   0.000841   0.000001   0.000000   0.000000
    17  H   -0.000003   0.000000   0.000005   0.000000   0.000000   0.000000
    18  H    0.000003  -0.000001  -0.000010   0.000000   0.000000   0.000000
    19  H    0.000000   0.000000   0.000000   0.000000   0.000000   0.000000
    20  H    0.000000   0.000000   0.000000   0.000000   0.000000   0.000000
    21  H    0.000000   0.000000   0.000000   0.000000   0.000000   0.000000
    22  C    0.361257  -0.040174  -0.040084  -0.040137   0.004531  -0.000256
    23  H   -0.042498  -0.008758   0.006510   0.005590  -0.000084   0.000008
    24  H   -0.048640   0.006726  -0.007888   0.006267  -0.000108   0.000009
    25  C    4.784423   0.360539   0.363633   0.230541  -0.033681   0.005324
    26  H    0.360539   0.685000  -0.061238  -0.038907  -0.006063  -0.000110
    27  H    0.363633  -0.061238   0.683980  -0.038574  -0.005949  -0.000110
    28  O    0.230541  -0.038907  -0.038574   8.206623   0.256873  -0.032565
    29  C   -0.033681  -0.006063  -0.005949   0.256873   4.709292   0.395189
    30  H    0.005324  -0.000110  -0.000110  -0.032565   0.395189   0.580052
    31  H   -0.009162  -0.002665   0.013182  -0.037297   0.371167  -0.034288
    32  H   -0.009135   0.013146  -0.002702  -0.037367   0.371114  -0.034513
             31         32
     1  C    0.000000  -0.000001
     2  C    0.000000   0.000000
     3  O    0.000000   0.000000
     4  N    0.000011   0.000009
     5  C   -0.000002   0.000000
     6  C    0.000000   0.000000
     7  O    0.000000   0.000000
     8  N    0.000000   0.000000
     9  C    0.000000   0.000000
    10  C    0.000000   0.000000
    11  H    0.000000   0.000000
    12  H    0.000000   0.000006
    13  H    0.000000   0.000000
    14  H    0.000002   0.000000
    15  H    0.000000   0.000000
    16  H    0.000001   0.000000
    17  H    0.000000   0.000000
    18  H    0.000000   0.000000
    19  H    0.000000   0.000000
    20  H    0.000000   0.000000
    21  H    0.000000   0.000000
    22  C    0.000030   0.000020
    23  H    0.000047  -0.000067
    24  H   -0.000058   0.000049
    25  C   -0.009162  -0.009135
    26  H   -0.002665   0.013146
    27  H    0.013182  -0.002702
    28  O   -0.037297  -0.037367
    29  C    0.371167   0.371114
    30  H   -0.034288  -0.034513
    31  H    0.655795  -0.051972
    32  H   -0.051972   0.656716
 Mulliken atomic charges:
              1
     1  C   -0.406634
     2  C    0.576143
     3  O   -0.506673
     4  N   -0.449922
     5  C   -0.105987
     6  C    0.594360
     7  O   -0.518131
     8  N   -0.425769
     9  C   -0.166281
    10  C   -0.173483
    11  H    0.146602
    12  H    0.124184
    13  H    0.139471
    14  H    0.112400
    15  H    0.142232
    16  H    0.106290
    17  H    0.106729
    18  H    0.133780
    19  H    0.097487
    20  H    0.149530
    21  H    0.123566
    22  C   -0.084434
    23  H    0.128485
    24  H    0.126442
    25  C    0.095305
    26  H    0.084639
    27  H    0.083638
    28  O   -0.482987
    29  C   -0.062152
    30  H    0.121259
    31  H    0.095210
    32  H    0.094699
 Sum of Mulliken atomic charges =   0.00000
 Mulliken charges with hydrogens summed into heavy atoms:
              1
     1  C    0.003623
     2  C    0.576143
     3  O   -0.506673
     4  N   -0.449922
     5  C    0.148646
     6  C    0.594360
     7  O   -0.518131
     8  N   -0.425769
     9  C    0.180517
    10  C    0.197100
    22  C    0.170494
    25  C    0.263582
    28  O   -0.482987
    29  C    0.249016
 Sum of Mulliken charges with hydrogens summed into heavy atoms =   0.00000
 Electronic spatial extent (au):  <R**2>=           3810.9726
 Charge=              0.0000 electrons
 Dipole moment (field-independent basis, Debye):
    X=              4.3894    Y=             -2.0088    Z=             -2.8513  Tot=              5.6064
 Quadrupole moment (field-independent basis, Debye-Ang):
   XX=            -86.1078   YY=            -81.6223   ZZ=            -87.4205
   XY=              4.2045   XZ=              4.2601   YZ=              1.6516
 Traceless Quadrupole moment (field-independent basis, Debye-Ang):
   XX=             -1.0576   YY=              3.4279   ZZ=             -2.3703
   XY=              4.2045   XZ=              4.2601   YZ=              1.6516
 Octapole moment (field-independent basis, Debye-Ang**2):
  XXX=             24.0962  YYY=              8.6602  ZZZ=             -4.6733  XYY=             14.7298
  XXY=            -29.1281  XXZ=            -40.4103  XZZ=             12.5642  YZZ=             -1.4263
  YYZ=              0.5334  XYZ=              0.0981
 Hexadecapole moment (field-independent basis, Debye-Ang**3):
 XXXX=          -3253.0983 YYYY=           -861.3381 ZZZZ=           -515.5769 XXXY=            -67.7351
 XXXZ=             -1.7714 YYYX=             -2.6660 YYYZ=              1.2188 ZZZX=             28.3045
 ZZZY=             -5.5496 XXYY=           -708.1796 XXZZ=           -706.2806 YYZZ=           -225.7559
 XXYZ=             19.5352 YYXZ=             -1.6303 ZZXY=              7.2312
 N-N= 9.744769743723D+02 E-N=-3.554677882139D+03  KE= 6.826133437939D+02
 Calling FoFJK, ICntrl=      2127 FMM=F ISym2X=0 I1Cent= 0 IOpClX= 0 NMat=1 NMatS=1 NMatT=0.
 ***** Axes restored to original set *****
 -------------------------------------------------------------------
 Center     Atomic                   Forces (Hartrees/Bohr)
 Number     Number              X              Y              Z
 -------------------------------------------------------------------
      1        6           0.000001666   -0.000000161    0.000004432
      2        6           0.000024894   -0.000124171   -0.000199496
      3        8          -0.000001676   -0.000007083   -0.000002464
      4        7          -0.000047485    0.000239601    0.000391394
      5        6           0.000032660   -0.000221859   -0.000365441
      6        6          -0.000012015    0.000103874    0.000184989
      7        8          -0.000003366    0.000000519   -0.000007379
      8        7          -0.000009485    0.000002404   -0.000008664
      9        6           0.000005792    0.000010002   -0.000012374
     10        6           0.000012629    0.000006729    0.000001779
     11        1           0.000002781    0.000000730    0.000003710
     12        1           0.000003222    0.000000576    0.000004078
     13        1           0.000002455   -0.000002092    0.000004536
     14        1           0.000001649    0.000002082   -0.000002319
     15        1          -0.000000562   -0.000000727    0.000000673
     16        1           0.000000423   -0.000001164   -0.000002772
     17        1           0.000002150    0.000001725   -0.000000798
     18        1           0.000001345    0.000003447    0.000000339
     19        1          -0.000002314    0.000002068   -0.000004083
     20        1          -0.000005996   -0.000000075   -0.000003380
     21        1          -0.000002257    0.000003690   -0.000003751
     22        6           0.000002625   -0.000002461   -0.000000566
     23        1          -0.000003270   -0.000000114    0.000003313
     24        1          -0.000002055   -0.000003861   -0.000000663
     25        6          -0.000012113   -0.000003458   -0.000002632
     26        1           0.000001755   -0.000001613    0.000003842
     27        1          -0.000000285    0.000001538    0.000000498
     28        8           0.000008440   -0.000003384    0.000006077
     29        6          -0.000000430   -0.000001138    0.000002058
     30        1          -0.000001366   -0.000002956    0.000002726
     31        1          -0.000001421   -0.000000968    0.000001102
     32        1           0.000001608   -0.000001700    0.000001234
 -------------------------------------------------------------------
 Cartesian Forces:  Max     0.000391394 RMS     0.000072105

 GradGradGradGradGradGradGradGradGradGradGradGradGradGradGradGradGradGrad
 Berny optimization.
 Internal  Forces:  Max     0.000203352 RMS     0.000027674
 Search for a local minimum.
 Step number   1 out of a maximum of  155 on scan point     1 out of    37
 All quantities printed in internal units (Hartrees-Bohrs-Radians)
 Mixed Optimization -- En-DIIS/RFO-DIIS
 Second derivative matrix not updated -- first step.
 ITU=  0
     Eigenvalues ---    0.00351   0.00442   0.00736   0.00871   0.00929
     Eigenvalues ---    0.00982   0.01030   0.01082   0.01511   0.01546
     Eigenvalues ---    0.01604   0.01999   0.02021   0.02414   0.04114
     Eigenvalues ---    0.05356   0.05494   0.05877   0.06245   0.06857
     Eigenvalues ---    0.07351   0.07466   0.07475   0.07526   0.07657
     Eigenvalues ---    0.09468   0.10039   0.10513   0.10697   0.11092
     Eigenvalues ---    0.11701   0.12915   0.13607   0.16000   0.16000
     Eigenvalues ---    0.16000   0.16000   0.16000   0.16000   0.16000
     Eigenvalues ---    0.16000   0.16000   0.16000   0.16000   0.16000
     Eigenvalues ---    0.21923   0.21949   0.22122   0.22325   0.23413
     Eigenvalues ---    0.24608   0.24844   0.24931   0.25000   0.25000
     Eigenvalues ---    0.25000   0.25000   0.28337   0.29297   0.29936
     Eigenvalues ---    0.33308   0.33316   0.33571   0.33574   0.33826
     Eigenvalues ---    0.33978   0.34006   0.34202   0.34220   0.34242
     Eigenvalues ---    0.34299   0.34324   0.34377   0.34570   0.34763
     Eigenvalues ---    0.34797   0.34900   0.34989   0.35326   0.36712
     Eigenvalues ---    0.37258   0.37775   0.43430   0.43841   0.49700
     Eigenvalues ---    0.50007   0.92487   0.934141000.000001000.00000
     Eigenvalues --- 1000.000001000.000001000.000001000.000001000.00000
     Eigenvalues --- 1000.000001000.000001000.000001000.000001000.00000
     Eigenvalues --- 1000.000001000.000001000.000001000.000001000.00000
     Eigenvalues --- 1000.000001000.000001000.000001000.000001000.00000
     Eigenvalues --- 1000.000001000.000001000.000001000.000001000.00000
     Eigenvalues --- 1000.000001000.000001000.000001000.000001000.00000
     Eigenvalues --- 1000.000001000.000001000.000001000.000001000.00000
     Eigenvalues --- 1000.000001000.000001000.000001000.000001000.00000
     Eigenvalues --- 1000.000001000.000001000.000001000.000001000.00000
     Eigenvalues --- 1000.000001000.000001000.000001000.000001000.00000
     Eigenvalues --- 1000.000001000.000001000.000001000.000001000.00000
 RFO step:  Lambda=-1.13161765D-08 EMin= 3.50946641D-03
 Linear search not attempted -- first point.
 Iteration  1 RMS(Cart)=  0.00014439 RMS(Int)=  0.00000001
 Iteration  2 RMS(Cart)=  0.00000001 RMS(Int)=  0.00000000
 Iteration  1 RMS(Cart)=  0.00000000 RMS(Int)=  0.00000000
 Variable       Old X    -DE/DX   Delta X   Delta X   Delta X     New X
                                 (Linear)    (Quad)   (Total)
    R1        2.88092   0.00000   0.00000   0.00000   0.00000   2.88092
    R2        2.05838   0.00000   0.00000   0.00000   0.00000   2.05838
    R3        2.06699   0.00000   0.00000   0.00000   0.00000   2.06699
    R4        2.06960   0.00000   0.00000   0.00000   0.00000   2.06960
    R5        2.31808   0.00000   0.00000   0.00000   0.00000   2.31808
    R6        2.60169  -0.00001   0.00000  -0.00002  -0.00002   2.60167
    R7        2.78449  -0.00001   0.00000  -0.00002  -0.00002   2.78446
    R8        2.76282   0.00000   0.00000  -0.00001  -0.00001   2.76281
    R9        2.91407   0.00000   0.00000  -0.00001  -0.00001   2.91406
   R10        2.07320   0.00000   0.00000   0.00000   0.00000   2.07320
   R11        2.06788   0.00000   0.00000   0.00000   0.00000   2.06788
   R12        2.31398   0.00000   0.00000   0.00000   0.00000   2.31398
   R13        2.59859   0.00000   0.00000   0.00000   0.00000   2.59859
   R14        2.74694   0.00001   0.00000   0.00002   0.00002   2.74697
   R15        2.75458   0.00000   0.00000  -0.00001  -0.00001   2.75458
   R16        2.06005   0.00000   0.00000   0.00000   0.00000   2.06005
   R17        2.06990   0.00000   0.00000   0.00000   0.00000   2.06990
   R18        2.07368   0.00000   0.00000   0.00000   0.00000   2.07368
   R19        2.06829   0.00000   0.00000   0.00000   0.00000   2.06829
   R20        2.05693   0.00000   0.00000   0.00001   0.00001   2.05694
   R21        2.07624   0.00000   0.00000   0.00000   0.00000   2.07625
   R22        2.06061   0.00000   0.00000   0.00000   0.00000   2.06061
   R23        2.06923   0.00000   0.00000   0.00000   0.00000   2.06923
   R24        2.89388   0.00000   0.00000   0.00000   0.00000   2.89387
   R25        2.08514   0.00000   0.00000  -0.00001  -0.00001   2.08514
   R26        2.08500   0.00000   0.00000  -0.00001  -0.00001   2.08500
   R27        2.66646   0.00001   0.00000   0.00002   0.00002   2.66648
   R28        2.67142   0.00000   0.00000   0.00000   0.00000   2.67142
   R29        2.06378   0.00000   0.00000   0.00000   0.00000   2.06378
   R30        2.08055   0.00000   0.00000   0.00000   0.00000   2.08055
   R31        2.08060   0.00000   0.00000   0.00000   0.00000   2.08061
    A1        1.86533   0.00000   0.00000   0.00001   0.00001   1.86533
    A2        1.97155   0.00000   0.00000   0.00000   0.00000   1.97155
    A3        1.94033   0.00000   0.00000  -0.00001  -0.00001   1.94032
    A4        1.90626   0.00000   0.00000   0.00000   0.00000   1.90626
    A5        1.89652   0.00000   0.00000   0.00001   0.00001   1.89653
    A6        1.88262   0.00000   0.00000  -0.00001  -0.00001   1.88261
    A7        2.09722   0.00001   0.00000   0.00003   0.00003   2.09725
    A8        2.05123   0.00000   0.00000  -0.00001  -0.00001   2.05122
    A9        2.13474  -0.00001   0.00000  -0.00002  -0.00002   2.13472
   A10        2.13611  -0.00001   0.00000  -0.00003  -0.00003   2.13608
   A11        2.15210   0.00001   0.00000   0.00001   0.00001   2.15211
   A12        1.99110   0.00000   0.00000   0.00002   0.00002   1.99112
   A13        2.06752  -0.00002   0.00000  -0.00008  -0.00008   2.06744
   A14        1.90101   0.00001   0.00000   0.00000   0.00000   1.90101
   A15        1.88251   0.00000   0.00000   0.00000   0.00000   1.88251
   A16        1.91736   0.00009   0.00000   0.00005   0.00005   1.91741
   A17        1.80978  -0.00008   0.00000   0.00002   0.00002   1.80980
   A18        1.87515   0.00000   0.00000   0.00002   0.00002   1.87517
   A19        2.07040   0.00000   0.00000   0.00002   0.00002   2.07041
   A20        2.05638   0.00000   0.00000   0.00001   0.00001   2.05638
   A21        2.14162   0.00000   0.00000  -0.00002  -0.00002   2.14160
   A22        2.14642   0.00000   0.00000  -0.00002  -0.00002   2.14641
   A23        2.03600  -0.00001   0.00000  -0.00003  -0.00003   2.03597
   A24        2.00290   0.00001   0.00000   0.00002   0.00002   2.00293
   A25        1.94004   0.00000   0.00000   0.00001   0.00001   1.94004
   A26        1.91034   0.00000   0.00000  -0.00002  -0.00002   1.91032
   A27        1.94030   0.00000   0.00000   0.00000   0.00000   1.94030
   A28        1.88563   0.00000   0.00000  -0.00003  -0.00003   1.88560
   A29        1.88272   0.00000   0.00000   0.00001   0.00001   1.88273
   A30        1.90358   0.00000   0.00000   0.00002   0.00002   1.90361
   A31        1.90762   0.00000   0.00000   0.00000   0.00000   1.90761
   A32        1.90078   0.00000   0.00000   0.00003   0.00003   1.90081
   A33        1.94090   0.00000   0.00000   0.00002   0.00002   1.94093
   A34        1.92009   0.00000   0.00000  -0.00004  -0.00004   1.92006
   A35        1.90036   0.00000   0.00000  -0.00001  -0.00001   1.90035
   A36        1.89409   0.00000   0.00000  -0.00001  -0.00001   1.89408
   A37        1.93212   0.00000   0.00000  -0.00002  -0.00002   1.93210
   A38        1.89799   0.00000   0.00000  -0.00001  -0.00001   1.89798
   A39        1.97202   0.00000   0.00000   0.00000   0.00000   1.97202
   A40        1.85994   0.00000   0.00000   0.00001   0.00001   1.85995
   A41        1.90239   0.00000   0.00000   0.00003   0.00003   1.90243
   A42        1.89569   0.00000   0.00000  -0.00002  -0.00002   1.89567
   A43        1.92293   0.00000   0.00000   0.00001   0.00001   1.92293
   A44        1.92738   0.00000   0.00000  -0.00001  -0.00001   1.92737
   A45        1.87084   0.00000   0.00000   0.00000   0.00000   1.87084
   A46        1.86811   0.00000   0.00000   0.00000   0.00000   1.86811
   A47        1.93913   0.00000   0.00000  -0.00001  -0.00001   1.93912
   A48        1.93622   0.00000   0.00000   0.00000   0.00000   1.93623
   A49        1.97413   0.00000   0.00000   0.00000   0.00000   1.97413
   A50        1.87140   0.00000   0.00000   0.00000   0.00000   1.87140
   A51        1.95007   0.00000   0.00000  -0.00001  -0.00001   1.95006
   A52        1.95048   0.00000   0.00000   0.00002   0.00002   1.95049
   A53        1.90058   0.00000   0.00000   0.00000   0.00000   1.90058
   A54        1.90059   0.00000   0.00000   0.00000   0.00000   1.90058
   A55        1.88971   0.00000   0.00000   0.00000   0.00000   1.88971
    D1       -0.10775   0.00000   0.00000   0.00011   0.00011  -0.10764
    D2        3.03333   0.00000   0.00000  -0.00004  -0.00004   3.03329
    D3       -2.20463   0.00000   0.00000   0.00010   0.00010  -2.20453
    D4        0.93645   0.00000   0.00000  -0.00005  -0.00005   0.93640
    D5        1.95926   0.00000   0.00000   0.00012   0.00012   1.95938
    D6       -1.18285   0.00000   0.00000  -0.00003  -0.00003  -1.18288
    D7        3.02778   0.00003   0.00000  -0.00015  -0.00015   3.02764
    D8       -0.01368  -0.00004   0.00000  -0.00006  -0.00006  -0.01374
    D9       -0.11433   0.00003   0.00000  -0.00030  -0.00030  -0.11464
   D10        3.12739  -0.00004   0.00000  -0.00022  -0.00022   3.12717
   D11       -0.02321  -0.00020   0.00000   0.00000   0.00000  -0.02321
   D12        2.18389  -0.00008   0.00000   0.00000   0.00000   2.18389
   D13       -2.06925  -0.00008   0.00000   0.00002   0.00002  -2.06923
   D14        3.02674  -0.00014   0.00000  -0.00008  -0.00008   3.02666
   D15       -1.04934  -0.00002   0.00000  -0.00008  -0.00008  -1.04942
   D16        0.98071  -0.00002   0.00000  -0.00006  -0.00006   0.98065
   D17        0.45039   0.00003   0.00000  -0.00006  -0.00006   0.45033
   D18        2.48812   0.00003   0.00000  -0.00006  -0.00006   2.48806
   D19       -1.68891   0.00003   0.00000  -0.00009  -0.00009  -1.68900
   D20       -2.59861  -0.00003   0.00000   0.00002   0.00002  -2.59859
   D21       -0.56088  -0.00003   0.00000   0.00002   0.00002  -0.56086
   D22        1.54528  -0.00003   0.00000  -0.00001  -0.00001   1.54527
   D23       -1.74405   0.00005   0.00000   0.00002   0.00002  -1.74403
   D24        1.57644   0.00005   0.00000   0.00000   0.00000   1.57644
   D25        2.33989  -0.00003   0.00000   0.00005   0.00005   2.33993
   D26       -0.62281  -0.00003   0.00000   0.00003   0.00003  -0.62279
   D27        0.34013  -0.00003   0.00000  -0.00001  -0.00001   0.34012
   D28       -2.62257  -0.00003   0.00000  -0.00003  -0.00003  -2.62260
   D29       -0.48833   0.00000   0.00000  -0.00015  -0.00015  -0.48848
   D30        3.13900   0.00000   0.00000  -0.00008  -0.00008   3.13891
   D31        2.83996   0.00000   0.00000  -0.00017  -0.00017   2.83979
   D32        0.18411  -0.00001   0.00000  -0.00011  -0.00011   0.18400
   D33        0.54905   0.00000   0.00000   0.00007   0.00007   0.54911
   D34        2.63059   0.00000   0.00000   0.00003   0.00003   2.63062
   D35       -1.54854   0.00000   0.00000   0.00005   0.00005  -1.54850
   D36       -3.06995   0.00000   0.00000  -0.00001  -0.00001  -3.06996
   D37       -0.98841   0.00000   0.00000  -0.00005  -0.00005  -0.98845
   D38        1.11564   0.00000   0.00000  -0.00003  -0.00003   1.11561
   D39       -2.66525   0.00000   0.00000  -0.00003  -0.00003  -2.66528
   D40       -0.56712   0.00000   0.00000  -0.00006  -0.00006  -0.56718
   D41        1.51931   0.00000   0.00000  -0.00004  -0.00004   1.51927
   D42        0.92224   0.00000   0.00000   0.00003   0.00003   0.92227
   D43        3.02036   0.00000   0.00000   0.00001   0.00001   3.02037
   D44       -1.17639   0.00000   0.00000   0.00003   0.00003  -1.17636
   D45        1.07945   0.00000   0.00000   0.00000   0.00000   1.07945
   D46       -0.98056   0.00000   0.00000   0.00000   0.00000  -0.98056
   D47       -3.09168   0.00000   0.00000   0.00000   0.00000  -3.09168
   D48       -1.07635   0.00000   0.00000   0.00001   0.00001  -1.07634
   D49       -3.13636   0.00000   0.00000   0.00000   0.00000  -3.13635
   D50        1.03571   0.00000   0.00000   0.00000   0.00000   1.03571
   D51       -3.09627   0.00000   0.00000  -0.00002  -0.00002  -3.09629
   D52        1.12691   0.00000   0.00000  -0.00002  -0.00002   1.12689
   D53       -0.98421   0.00000   0.00000  -0.00002  -0.00002  -0.98424
   D54        3.13972   0.00000   0.00000  -0.00001  -0.00001   3.13971
   D55       -1.04168   0.00000   0.00000   0.00000   0.00000  -1.04168
   D56        1.03420   0.00000   0.00000   0.00000   0.00000   1.03420
   D57       -3.14030   0.00000   0.00000   0.00002   0.00002  -3.14028
   D58       -1.05909   0.00000   0.00000   0.00001   0.00001  -1.05907
   D59        1.06143   0.00000   0.00000   0.00001   0.00001   1.06145
         Item               Value     Threshold  Converged?
 Maximum Force            0.000017     0.000450     YES
 RMS     Force            0.000003     0.000300     YES
 Maximum Displacement     0.000674     0.001800     YES
 RMS     Displacement     0.000144     0.001200     YES
 Predicted change in Energy=-5.658022D-09
 Optimization completed.
    -- Stationary point found.
                           ----------------------------
                           !   Optimized Parameters   !
                           ! (Angstroms and Degrees)  !
 --------------------------                            --------------------------
 ! Name  Definition              Value          Derivative Info.                !
 --------------------------------------------------------------------------------
 ! R1    R(1,2)                  1.5245         -DE/DX =    0.0                 !
 ! R2    R(1,11)                 1.0892         -DE/DX =    0.0                 !
 ! R3    R(1,12)                 1.0938         -DE/DX =    0.0                 !
 ! R4    R(1,13)                 1.0952         -DE/DX =    0.0                 !
 ! R5    R(2,3)                  1.2267         -DE/DX =    0.0                 !
 ! R6    R(2,4)                  1.3768         -DE/DX =    0.0                 !
 ! R7    R(4,5)                  1.4735         -DE/DX =    0.0                 !
 ! R8    R(4,22)                 1.462          -DE/DX =    0.0                 !
 ! R9    R(5,6)                  1.5421         -DE/DX =    0.0                 !
 ! R10   R(5,14)                 1.0971         -DE/DX =    0.0                 !
 ! R11   R(5,15)                 1.0943         -DE/DX =    0.0                 !
 ! R12   R(6,7)                  1.2245         -DE/DX =    0.0                 !
 ! R13   R(6,8)                  1.3751         -DE/DX =    0.0                 !
 ! R14   R(8,9)                  1.4536         -DE/DX =    0.0                 !
 ! R15   R(8,10)                 1.4577         -DE/DX =    0.0                 !
 ! R16   R(9,16)                 1.0901         -DE/DX =    0.0                 !
 ! R17   R(9,17)                 1.0953         -DE/DX =    0.0                 !
 ! R18   R(9,18)                 1.0973         -DE/DX =    0.0                 !
 ! R19   R(10,19)                1.0945         -DE/DX =    0.0                 !
 ! R20   R(10,20)                1.0885         -DE/DX =    0.0                 !
 ! R21   R(10,21)                1.0987         -DE/DX =    0.0                 !
 ! R22   R(22,23)                1.0904         -DE/DX =    0.0                 !
 ! R23   R(22,24)                1.095          -DE/DX =    0.0                 !
 ! R24   R(22,25)                1.5314         -DE/DX =    0.0                 !
 ! R25   R(25,26)                1.1034         -DE/DX =    0.0                 !
 ! R26   R(25,27)                1.1033         -DE/DX =    0.0                 !
 ! R27   R(25,28)                1.411          -DE/DX =    0.0                 !
 ! R28   R(28,29)                1.4137         -DE/DX =    0.0                 !
 ! R29   R(29,30)                1.0921         -DE/DX =    0.0                 !
 ! R30   R(29,31)                1.101          -DE/DX =    0.0                 !
 ! R31   R(29,32)                1.101          -DE/DX =    0.0                 !
 ! A1    A(2,1,11)             106.8754         -DE/DX =    0.0                 !
 ! A2    A(2,1,12)             112.9612         -DE/DX =    0.0                 !
 ! A3    A(2,1,13)             111.1725         -DE/DX =    0.0                 !
 ! A4    A(11,1,12)            109.2207         -DE/DX =    0.0                 !
 ! A5    A(11,1,13)            108.6626         -DE/DX =    0.0                 !
 ! A6    A(12,1,13)            107.8661         -DE/DX =    0.0                 !
 ! A7    A(1,2,3)              120.1618         -DE/DX =    0.0                 !
 ! A8    A(1,2,4)              117.5267         -DE/DX =    0.0                 !
 ! A9    A(3,2,4)              122.3115         -DE/DX =    0.0                 !
 ! A10   A(2,4,5)              122.39           -DE/DX =    0.0                 !
 ! A11   A(2,4,22)             123.3062         -DE/DX =    0.0                 !
 ! A12   A(5,4,22)             114.0818         -DE/DX =    0.0                 !
 ! A13   A(4,5,6)              118.4604         -DE/DX =    0.0                 !
 ! A14   A(4,5,14)             108.9201         -DE/DX =    0.0                 !
 ! A15   A(4,5,15)             107.86           -DE/DX =    0.0                 !
 ! A16   A(6,5,14)             109.8565         -DE/DX =    0.0001              !
[...]
   D17        0.35972   0.00151   0.00125  -0.00559  -0.00434   0.35538
   D18        2.41429   0.00152   0.00138  -0.00581  -0.00443   2.40986
   D19       -1.76289   0.00153   0.00135  -0.00399  -0.00264  -1.76553
   D20       -2.49330  -0.00153  -0.00111  -0.01323  -0.01433  -2.50763
   D21       -0.43873  -0.00152  -0.00097  -0.01345  -0.01442  -0.45315
   D22        1.66728  -0.00151  -0.00100  -0.01163  -0.01263   1.65465
   D23       -0.71114  -0.00249   0.01017   0.00651   0.01666  -0.69448
   D24        2.79817  -0.00799   0.00000   0.00000   0.00000   2.79817
   D25       -2.97581  -0.00066   0.01927   0.01068   0.02995  -2.94586
   D26        0.53350  -0.00616   0.00910   0.00417   0.01329   0.54679
   D27        1.34561  -0.00027   0.02089   0.00776   0.02861   1.37421
   D28       -1.42827  -0.00577   0.01072   0.00125   0.01195  -1.41632
   D29       -0.79290   0.00263   0.00330   0.02620   0.02956  -0.76334
   D30        2.83859   0.00245   0.00329   0.00996   0.01330   2.85189
   D31        2.71393  -0.00212  -0.00629   0.02044   0.01410   2.72804
   D32        0.06224  -0.00230  -0.00631   0.00421  -0.00216   0.06008
   D33        0.34385  -0.00002  -0.00087  -0.00396  -0.00484   0.33901
   D34        2.44572  -0.00009  -0.00101  -0.00457  -0.00559   2.44012
   D35       -1.75321   0.00004  -0.00137  -0.00464  -0.00602  -1.75923
   D36        3.00710   0.00008  -0.00075   0.01155   0.01081   3.01791
   D37       -1.17422   0.00001  -0.00089   0.01094   0.01006  -1.16417
   D38        0.91004   0.00013  -0.00125   0.01087   0.00963   0.91967
   D39       -2.69905  -0.00009  -0.00032   0.01906   0.01874  -2.68031
   D40       -0.60252  -0.00006  -0.00042   0.01968   0.01925  -0.58327
   D41        1.48908  -0.00001  -0.00035   0.01992   0.01956   1.50864
   D42        0.87635   0.00001  -0.00076   0.00429   0.00353   0.87989
   D43        2.97289   0.00004  -0.00086   0.00490   0.00405   2.97693
   D44       -1.21870   0.00009  -0.00079   0.00514   0.00435  -1.21435
   D45        1.07235  -0.00003  -0.00043   0.00362   0.00318   1.07553
   D46       -0.98502   0.00004  -0.00075   0.00464   0.00389  -0.98113
   D47       -3.09723  -0.00006  -0.00043   0.00268   0.00225  -3.09497
   D48       -1.07669  -0.00002  -0.00036   0.00521   0.00485  -1.07183
   D49       -3.13406   0.00004  -0.00067   0.00624   0.00557  -3.12849
   D50        1.03693  -0.00006  -0.00035   0.00428   0.00393   1.04085
   D51       -3.09162   0.00005  -0.00033   0.00599   0.00565  -3.08597
   D52        1.13419   0.00012  -0.00065   0.00701   0.00637   1.14056
   D53       -0.97801   0.00002  -0.00033   0.00505   0.00473  -0.97329
   D54       -3.12003   0.00001   0.00105  -0.00299  -0.00193  -3.12196
   D55       -1.02077  -0.00001   0.00109  -0.00377  -0.00268  -1.02345
   D56        1.05665  -0.00016   0.00130  -0.00593  -0.00463   1.05202
   D57        3.13871   0.00004  -0.00068  -0.00121  -0.00189   3.13681
   D58       -1.06227  -0.00004  -0.00058  -0.00211  -0.00269  -1.06496
   D59        1.05732  -0.00001  -0.00060  -0.00170  -0.00230   1.05502
         Item               Value     Threshold  Converged?
 Maximum Force            0.000796     0.000450     NO 
 RMS     Force            0.000215     0.000300     YES
 Maximum Displacement     0.091042     0.001800     NO 
 RMS     Displacement     0.025085     0.001200     NO 
 Predicted change in Energy=-5.149368D-05
 GradGradGradGradGradGradGradGradGradGradGradGradGradGradGradGradGradGrad

                          Input orientation:                          
 ---------------------------------------------------------------------
 Center     Atomic      Atomic             Coordinates (Angstroms)
 Number     Number       Type             X           Y           Z
 ---------------------------------------------------------------------
      1          6           0        1.142364    3.087823    0.207371
      2          6           0        0.252650    1.988533   -0.364801
      3          8           0       -0.610627    2.259205   -1.180252
      4          7           0        0.519833    0.669170    0.015439
      5          6           0       -0.506183   -0.370764    0.149354
      6          6           0       -1.982211   -0.021555   -0.107352
      7          8           0       -2.452829    1.038250    0.273300
      8          7           0       -2.806657   -1.106511   -0.377685
      9          6           0       -2.473328   -2.215059   -1.266272
     10          6           0       -4.242297   -0.870873   -0.254322
     11          1           0        0.719843    4.033706   -0.129818
     12          1           0        2.172098    3.020027   -0.159163
     13          1           0        1.171565    3.073028    1.301523
     14          1           0       -0.192711   -1.252200   -0.416734
     15          1           0       -0.524226   -0.686377    1.203149
     16          1           0       -1.401055   -2.288616   -1.435803
     17          1           0       -2.817938   -3.162242   -0.835190
     18          1           0       -2.959095   -2.092481   -2.244723
     19          1           0       -4.735932   -1.819332   -0.020423
     20          1           0       -4.420111   -0.150856    0.542264
     21          1           0       -4.673194   -0.470883   -1.182381
     22          6           0        1.774617    0.307275    0.677876
     23          1           0        2.247251    1.178961    1.130201
     24          1           0        1.578059   -0.398140    1.493380
     25          6           0        2.766601   -0.334655   -0.295341
     26          1           0        3.023020    0.380453   -1.094785
     27          1           0        2.314241   -1.215249   -0.782616
     28          8           0        3.911754   -0.701905    0.446454
     29          6           0        4.921115   -1.287708   -0.349610
     30          1           0        5.756819   -1.528579    0.311358
     31          1           0        4.573427   -2.213073   -0.835129
     32          1           0        5.274161   -0.599907   -1.133638
 ---------------------------------------------------------------------
                    Distance matrix (angstroms):
                    1          2          3          4          5
     1  C    0.000000
     2  C    1.525585   0.000000
     3  O    2.384342   1.217978   0.000000
     4  N    2.504848   1.398817   2.288193   0.000000
     5  C    3.831827   2.531100   2.948813   1.467006   0.000000
     6  C    4.419304   3.016843   2.869534   2.598538   1.538344
     7  O    4.138902   2.937657   2.645232   3.006564   2.406265
     8  N    5.790466   4.351877   4.098135   3.791191   2.472099
     9  C    6.585241   5.090559   4.847276   4.349778   3.045501
    10  C    6.699180   5.328505   4.883008   5.012224   3.790991
    11  H    1.089457   2.110975   2.454061   3.373604   4.580440
    12  H    1.095123   2.188732   3.060234   2.878714   4.331955
    13  H    1.094641   2.190244   3.161918   2.803087   4.000255
    14  H    4.583419   3.271604   3.617675   2.094315   1.093457
    15  H    4.244253   3.196428   3.790055   2.082840   1.100191
    16  H    6.170502   4.709118   4.623068   3.813714   2.644177
    17  H    7.472231   6.015003   5.863733   5.152087   3.755780
    18  H    7.047714   5.523051   5.058218   4.983772   3.835712
    19  H    7.660706   6.285251   5.915894   5.815238   4.474142
    20  H    6.445333   5.218663   4.825725   5.035179   3.939742
    21  H    6.958198   5.566067   4.894674   5.449956   4.375788
    22  C    2.890080   2.496035   3.598897   1.464334   2.437442
    23  H    2.390845   2.620853   3.830481   2.118149   3.308339
    24  H    3.741067   3.302386   4.358914   2.107914   2.480165
    25  C    3.821547   3.423737   4.349350   2.480366   3.303055
    26  H    3.544338   3.285384   4.091504   2.753525   3.816737
    27  H    4.568347   3.832616   4.559035   2.721733   3.088125
    28  O    4.699863   4.613635   5.645022   3.683850   4.440280
    29  C    5.808137   5.703381   6.623498   4.830519   5.526782
    30  H    6.528030   6.566822   7.557551   5.687152   6.371184
    31  H    6.399882   6.045148   6.855275   5.046030   5.492335
    32  H    5.698192   5.701465   6.542738   5.053174   5.925449
                    6          7          8          9         10
     6  C    0.000000
     7  O    1.220477   0.000000
     8  N    1.389216   2.269136   0.000000
     9  C    2.528982   3.599267   1.459305   0.000000
    10  C    2.418870   2.669332   1.460071   2.441338   0.000000
    11  H    4.873063   4.381906   6.238547   7.108792   6.978054
    12  H    5.148999   5.050189   6.470245   7.086028   7.502841
    13  H    4.637637   4.281798   6.009538   6.916840   6.876403
    14  H    2.193744   3.290963   2.618294   2.617255   4.070741
    15  H    2.070053   2.749266   2.808031   3.497699   3.997788
    16  H    2.691113   3.885267   2.119599   1.088081   3.388000
    17  H    3.330481   4.359609   2.106054   1.096241   2.759814
    18  H    3.132314   4.049472   2.116885   1.099255   2.664700
    19  H    3.289762   3.669415   2.087547   2.613067   1.094513
    20  H    2.526276   2.314414   2.088735   3.364773   1.088390
    21  H    2.932401   3.053934   2.129676   2.808665   1.098616
    22  C    3.852073   4.309212   4.909285   5.309135   6.201636
    23  H    4.567398   4.779626   5.747964   6.288586   6.944995
    24  H    3.921693   4.449704   4.819586   5.227868   6.095448
    25  C    4.762834   5.426847   5.627055   5.651148   7.029500
    26  H    5.117516   5.682365   6.058913   6.080783   7.420042
    27  H    4.510032   5.377562   5.138034   4.914708   6.586796
    28  O    5.958892   6.600457   6.780852   6.781764   8.185853
    29  C    7.022659   7.757135   7.729947   7.508530   9.173383
    30  H    7.895507   8.601650   8.601515   8.408061  10.036678
    31  H    6.950453   7.820996   7.476588   7.059932   8.936209
    32  H    7.351373   8.023054   8.131896   7.915168   9.560836
                   11         12         13         14         15
    11  H    0.000000
    12  H    1.771285   0.000000
    13  H    1.782047   1.771293   0.000000
    14  H    5.371766   4.889845   4.849871   0.000000
    15  H    5.060009   4.781578   4.125350   1.747591   0.000000
    16  H    6.795260   6.525252   6.546644   1.890173   3.209371
    17  H    8.049540   7.973576   7.704561   3.273405   3.942822
    18  H    7.452353   7.537668   7.504711   3.420599   4.448992
    19  H    8.002218   8.435610   7.783395   4.595602   4.529810
    20  H    6.661935   7.348722   6.498980   4.472531   3.987664
    21  H    7.105213   7.751868   7.272571   4.612093   4.790733
    22  C    3.956160   2.866644   2.898620   2.738706   2.558894
    23  H    3.474217   2.248917   2.184935   3.775840   3.341541
    24  H    4.797141   3.842869   3.500151   2.741091   2.141709
    25  C    4.826924   3.409673   4.087349   3.100670   3.633005
    26  H    4.425160   2.926911   4.052177   3.669637   4.359080
    27  H    5.524471   4.283277   4.902924   2.533781   3.504264
    28  O    5.739895   4.152824   4.742352   4.230195   4.500083
    29  C    6.783542   5.113702   5.983426   5.114390   5.694243
    30  H    7.516966   5.810459   6.571132   6.000285   6.399698
    31  H    7.373589   5.797296   6.639338   4.880001   5.698372
    32  H    6.574179   4.865831   6.020943   5.552128   6.252147
                   16         17         18         19         20
    16  H    0.000000
    17  H    1.769608   0.000000
    18  H    1.766440   1.775133   0.000000
    19  H    3.653072   2.479104   2.859943   0.000000
    20  H    4.194933   3.678693   3.697535   1.788902   0.000000
    21  H    3.751703   3.287238   2.587719   1.781123   1.772249
    22  C    4.614237   5.951342   6.058749   6.884572   6.213125
    23  H    5.649655   6.954491   7.014163   7.686256   6.824060
    24  H    4.585753   5.690982   6.118004   6.646643   6.078142
    25  C    4.742149   6.282814   6.298701   7.652963   7.237692
    26  H    5.178094   6.836290   6.574455   8.136009   7.639529
    27  H    3.922014   5.489335   5.542144   7.116937   6.945483
    28  O    5.855466   7.279053   7.508974   8.732072   8.350616
    29  C    6.492416   7.977631   8.144742   9.677269   9.452321
    30  H    7.407118   8.803970   9.100478  10.502021  10.272358
    31  H    6.005077   7.452060   7.664227   9.353231   9.329183
    32  H    6.892137   8.493332   8.440900  10.145354   9.848309
                   21         22         23         24         25
    21  H    0.000000
    22  C    6.755765   0.000000
    23  H    7.480814   1.089870   0.000000
    24  H    6.800232   1.096035   1.751275   0.000000
    25  C    7.493728   1.530770   2.143112   2.148531   0.000000
    26  H    7.743653   2.169375   2.487970   3.064754   1.102833
    27  H    7.038334   2.177685   3.065225   2.527804   1.103410
    28  O    8.741156   2.374732   2.603025   2.575745   1.412978
    29  C    9.664962   3.674255   3.927321   3.919690   2.356520
    30  H   10.589389   4.400299   4.507588   4.487439   3.276422
    31  H    9.415722   4.058900   4.558455   4.205730   2.661662
    32  H    9.948311   4.043682   4.177502   4.539064   2.657246
                   26         27         28         29         30
    26  H    0.000000
    27  H    1.773719   0.000000
    28  O    2.082489   2.079947   0.000000
    29  C    2.634542   2.643584   1.412690   0.000000
    30  H    3.618742   3.625783   2.026304   1.092383   0.000000
    31  H    3.032747   2.470290   2.088994   1.101325   1.784204
    32  H    2.455656   3.043516   2.088839   1.101096   1.784210
                   31         32
    31  H    0.000000
    32  H    1.783940   0.000000
 Stoichiometry    C9H18N2O3
 Framework group  C1[X(C9H18N2O3)]
 Deg. of freedom    90
 Full point group                 C1      NOp   1
 Largest Abelian subgroup         C1      NOp   1
 Largest concise Abelian subgroup C1      NOp   1
                         Standard orientation:                         
 ---------------------------------------------------------------------
 Center     Atomic      Atomic             Coordinates (Angstroms)
 Number     Number       Type             X           Y           Z
 ---------------------------------------------------------------------
      1          6           0        1.270232    2.914165    0.043670
      2          6           0        0.281073    1.828249   -0.368348
      3          8           0       -0.615498    2.079843   -1.153416
      4          7           0        0.492869    0.534178    0.118696
      5          6           0       -0.582728   -0.419702    0.410776
      6          6           0       -2.048731    0.000889    0.209674
      7          8           0       -2.429377    1.119474    0.515352
      8          7           0       -2.952449   -1.047664    0.092403
      9          6           0       -2.744404   -2.251791   -0.705323
     10          6           0       -4.360380   -0.708073    0.277369
     11          1           0        0.884133    3.851213   -0.356062
     12          1           0        2.268125    2.745925   -0.374899
     13          1           0        1.369370    2.996891    1.130669
     14          1           0       -0.359957   -1.367562   -0.086800
     15          1           0       -0.551277   -0.636464    1.488944
     16          1           0       -1.691711   -2.410663   -0.930083
     17          1           0       -3.116434   -3.131250   -0.166910
     18          1           0       -3.284373   -2.186937   -1.660619
     19          1           0       -4.893713   -1.596920    0.628743
     20          1           0       -4.442743    0.091409    1.011288
     21          1           0       -4.825816   -0.366579   -0.657355
     22          6           0        1.764037    0.152342    0.737249
     23          1           0        2.316344    1.028585    1.076325
     24          1           0        1.578881   -0.461686    1.626057
     25          6           0        2.650617   -0.639024   -0.227620
     26          1           0        2.897022   -0.017836   -1.104917
     27          1           0        2.115705   -1.528623   -0.601780
     28          8           0        3.817406   -1.011779    0.476769
     29          6           0        4.736142   -1.732428   -0.318392
     30          1           0        5.597017   -1.966626    0.311962
     31          1           0        4.302926   -2.673227   -0.692742
     32          1           0        5.078161   -1.143317   -1.183484
 ---------------------------------------------------------------------
 Rotational constants (GHZ):      0.9803940      0.3357752      0.2674380
 Standard basis: 6-31G(d,p) (6D, 7F)
 There are   300 symmetry adapted basis functions of A   symmetry.
 Integral buffers will be    131072 words long.
 Raffenetti 2 integral format.
 Two-electron integral symmetry is turned on.
   300 basis functions,   518 primitive gaussians,   300 cartesian basis functions
    55 alpha electrons       55 beta electrons
       nuclear repulsion energy       951.9293868485 Hartrees.
 NAtoms=   32 NActive=   32 NUniq=   32 SFac= 1.00D+00 NAtFMM=   60 NAOKFM=F Big=F
 One-electron integrals computed using PRISM.
 NBasis=   300 RedAO= T  NBF=   300
 NBsUse=   300 1.00D-06 NBFU=   300
 Initial guess read from the read-write file.
 B after Tr=     0.000000    0.000000    0.000000
         Rot=    1.000000    0.000000    0.000000    0.000000 Ang=   0.00 deg.
 Initial guess orbital symmetries:
       Occupied  (A) (A) (A) (A) (A) (A) (A) (A) (A) (A) (A) (A)
                 (A) (A) (A) (A) (A) (A) (A) (A) (A) (A) (A) (A)
                 (A) (A) (A) (A) (A) (A) (A) (A) (A) (A) (A) (A)
                 (A) (A) (A) (A) (A) (A) (A) (A) (A) (A) (A) (A)
                 (A) (A) (A) (A) (A) (A) (A)
       Virtual   (A) (A) (A) (A) (A) (A) (A) (A) (A) (A) (A) (A)
                 (A) (A) (A) (A) (A) (A) (A) (A) (A) (A) (A) (A)
                 (A) (A) (A) (A) (A) (A) (A) (A) (A) (A) (A) (A)
                 (A) (A) (A) (A) (A) (A) (A) (A) (A) (A) (A) (A)
                 (A) (A) (A) (A) (A) (A) (A) (A) (A) (A) (A) (A)
                 (A) (A) (A) (A) (A) (A) (A) (A) (A) (A) (A) (A)
                 (A) (A) (A) (A) (A) (A) (A) (A) (A) (A) (A) (A)
                 (A) (A) (A) (A) (A) (A) (A) (A) (A) (A) (A) (A)
                 (A) (A) (A) (A) (A) (A) (A) (A) (A) (A) (A) (A)
                 (A) (A) (A) (A) (A) (A) (A) (A) (A) (A) (A) (A)
                 (A) (A) (A) (A) (A) (A) (A) (A) (A) (A) (A) (A)
                 (A) (A) (A) (A) (A) (A) (A) (A) (A) (A) (A) (A)
                 (A) (A) (A) (A) (A) (A) (A) (A) (A) (A) (A) (A)
                 (A) (A) (A) (A) (A) (A) (A) (A) (A) (A) (A) (A)
                 (A) (A) (A) (A) (A) (A) (A) (A) (A) (A) (A) (A)
                 (A) (A) (A) (A) (A) (A) (A) (A) (A) (A) (A) (A)
                 (A) (A) (A) (A) (A) (A) (A) (A) (A) (A) (A) (A)
                 (A) (A) (A) (A) (A) (A) (A) (A) (A) (A) (A) (A)
                 (A) (A) (A) (A) (A) (A) (A) (A) (A) (A) (A) (A)
                 (A) (A) (A) (A) (A) (A) (A) (A) (A) (A) (A) (A)
                 (A) (A) (A) (A) (A)
 Harris functional with IExCor=  402 diagonalized for initial guess.
 ExpMin= 1.61D-01 ExpMax= 5.48D+03 ExpMxC= 8.25D+02 IAcc=1 IRadAn=         1 AccDes= 0.00D+00
 HarFok:  IExCor=  402 AccDes= 0.00D+00 IRadAn=         1 IDoV= 1
 ScaDFX=  1.000000  1.000000  1.000000  1.000000
 FoFCou: FMM=F IPFlag=           0 FMFlag=      100000 FMFlg1=           0
         NFxFlg=           0 DoJE=T BraDBF=F KetDBF=T FulRan=T
         Omega=  0.000000  0.000000  1.000000  0.000000  0.000000 ICntrl=     500 IOpCl=  0
         NMat0=    1 NMatS0=    1 NMatT0=    0 NMatD0=    1 NMtDS0=    0 NMtDT0=    0
         I1Cent=           4 NGrid=           0.
 Petite list used in FoFCou.
