 Entering Gaussian System, Link 0=/data/opt/apps/g09-C01/g09
 Initial command:
 /data/opt/apps/g09-C01/l1.exe /tmp/g09-tuu61186-1098596c21e64fea8x/Gau-1098664.inp -scrdir=/tmp/g09-tuu61186-1098596c21e64fea8x/
 Entering Link 1 = /data/opt/apps/g09-C01/l1.exe PID=   1098678.
  
 Copyright (c) 1988,1990,1992,1993,1995,1998,2003,2009,2011,
            Gaussian, Inc.  All Rights Reserved.
  
 This is part of the Gaussian(R) 09 program.  It is based on
 the Gaussian(R) 03 system (copyright 2003, Gaussian, Inc.),
 the Gaussian(R) 98 system (copyright 1998, Gaussian, Inc.),
 the Gaussian(R) 94 system (copyright 1995, Gaussian, Inc.),
 the Gaussian 92(TM) system (copyright 1992, Gaussian, Inc.),
 the Gaussian 90(TM) system (copyright 1990, Gaussian, Inc.),
 the Gaussian 88(TM) system (copyright 1988, Gaussian, Inc.),
 the Gaussian 86(TM) system (copyright 1986, Carnegie Mellon
 University), and the Gaussian 82(TM) system (copyright 1983,
 Carnegie Mellon University). Gaussian is a federally registered
 trademark of Gaussian, Inc.
  
 This software contains proprietary and confidential information,
 including trade secrets, belonging to Gaussian, Inc.
  
 This software is provided under written license and may be
 used, copied, transmitted, or stored only in accord with that
 written license.
  
 The following legend is applicable only to US Government
 contracts under FAR:
  
                    RESTRICTED RIGHTS LEGEND
  
 Use, reproduction and disclosure by the US Government is
 subject to restrictions as set forth in subparagraphs (a)
 and (c) of the Commercial Computer Software - Restricted
 Rights clause in FAR 52.227-19.
  
 Gaussian, Inc.
 340 Quinnipiac St., Bldg. 40, Wallingford CT 06492
  
  
 ---------------------------------------------------------------
 Warning -- This program may not be used in any manner that
 competes with the business of Gaussian, Inc. or will provide
 assistance to any competitor of Gaussian, Inc.  The licensee
 of this program is prohibited from giving any competitor of
 Gaussian, Inc. access to this program.  By using this program,
 the user acknowledges that Gaussian, Inc. is engaged in the
 business of creating and licensing software in the field of
 computational chemistry and represents and warrants to the
 licensee that it is not a competitor of Gaussian, Inc. and that
 it will not use this program in any manner prohibited above.
 ---------------------------------------------------------------
  

 Cite this work as:
 Gaussian 09, Revision C.01,
 M. J. Frisch, G. W. Trucks, H. B. Schlegel, G. E. Scuseria, 
 M. A. Robb, J. R. Cheeseman, G. Scalmani, V. Barone, B. Mennucci, 
 G. A. Petersson, H. Nakatsuji, M. Caricato, X. Li, H. P. Hratchian, 
 A. F. Izmaylov, J. Bloino, G. Zheng, J. L. Sonnenberg, M. Hada, 
 M. Ehara, K. Toyota, R. Fukuda, J. Hasegawa, M. Ishida, T. Nakajima, 
 Y. Honda, O. Kitao, H. Nakai, T. Vreven, J. A. Montgomery, Jr., 
 J. E. Peralta, F. Ogliaro, M. Bearpark, J. J. Heyd, E. Brothers, 
 K. N. Kudin, V. N. Staroverov, T. Keith, R. Kobayashi, J. Normand, 
 K. Raghavachari, A. Rendell, J. C. Burant, S. S. Iyengar, J. Tomasi, 
 M. Cossi, N. Rega, J. M. Millam, M. Klene, J. E. Knox, J. B. Cross, 
 V. Bakken, C. Adamo, J. Jaramillo, R. Gomperts, R. E. Stratmann, 
 O. Yazyev, A. J. Austin, R. Cammi, C. Pomelli, J. W. Ochterski, 
 R. L. Martin, K. Morokuma, V. G. Zakrzewski, G. A. Voth, 
 P. Salvador, J. J. Dannenberg, S. Dapprich, A. D. Daniels, 
 O. Farkas, J. B. Foresman, J. V. Ortiz, J. Cioslowski, 
 and D. J. Fox, Gaussian, Inc., Wallingford CT, 2010.
 
 ******************************************
 Gaussian 09:  EM64L-G09RevC.01 23-Sep-2011
                24-Apr-2026 
 ******************************************
 %nprocshared=8
 Will use up to    8 processors via shared memory.
 %mem=14GB
 -----------------------------------
 # opt=modredundant b3lyp/6-31g(d,p)
 -----------------------------------
 1/14=-1,18=120,19=15,26=3,38=1/1,3;
 2/9=110,12=2,17=6,18=5,40=1/2;
 3/5=1,6=6,7=101,11=2,16=1,25=1,30=1,71=1,74=-5/1,2,3;
 4//1;
 5/5=2,38=5/2;
 6/7=2,8=2,9=2,10=2,28=1/1;
 7//1,2,3,16;
 1/14=-1,18=20,19=15/3(2);
 2/9=110/2;
 99//99;
 2/9=110/2;
 3/5=1,6=6,7=101,11=2,16=1,25=1,30=1,71=1,74=-5/1,2,3;
 4/5=5,16=3/1;
 5/5=2,38=5/2;
 7//1,2,3,16;
 1/14=-1,18=20,19=15/3(-5);
 2/9=110/2;
 6/7=2,8=2,9=2,10=2,19=2,28=1/1;
 99/9=1/99;
 ---------------
 QM dihedral opt
 ---------------
 Charge =  0 Multiplicity = 1
 Symbolic Z-Matrix:
 C                     3.0507    1.48224  -0.40972 
 C                     1.61791   1.91555  -0.13652 
 O                     1.26727   3.0759   -0.32366 
 N                     0.72406   0.9536    0.30552 
 C                    -0.56659   1.46279   0.79751 
 C                    -1.67658   0.40665   0.7801 
 O                    -1.98309  -0.17105   1.82093 
 N                    -2.29163   0.1423   -0.41823 
 C                    -2.00065   0.81821  -1.67441 
 C                    -3.40312  -0.79878  -0.44726 
 H                     3.51428   2.26107  -1.01465 
 H                     3.12316   0.5228   -0.92741 
 H                     3.61016   1.39893   0.52886 
 H                    -0.47817   1.75897   1.84883 
 H                    -0.8098    2.35419   0.22098 
 H                    -1.05159   1.34803  -1.63072 
 H                    -1.93363   0.0776   -2.47972 
 H                    -2.7945    1.53023  -1.93821 
 H                    -3.20661  -1.60175  -1.16802 
 H                    -3.52172  -1.22093   0.54893 
 H                    -4.33056  -0.29177  -0.74253 
 C                     1.16515  -0.35673   0.80494 
 H                     2.20839  -0.3163    1.12541 
 H                     0.56929  -0.613     1.68441 
 C                     1.01621  -1.46921  -0.2351 
 H                     1.55222  -1.20224  -1.16243 
 H                    -0.04436  -1.60265  -0.50016 
 O                     1.55051  -2.6451    0.33591 
 C                     1.41765  -3.77532  -0.50016 
 H                     1.85324  -4.62472   0.03076 
 H                     0.36211  -3.99748  -0.72145 
 H                     1.94955  -3.64266  -1.45567 
 
 The following ModRedundant input section has been read:
 D       2       4       5       6 F                                           
 D       4       5       6       8 S  36 10.000                                

 GradGradGradGradGradGradGradGradGradGradGradGradGradGradGradGradGradGrad
 Berny optimization.
 Initialization pass.
                           ----------------------------
                           !    Initial Parameters    !
                           ! (Angstroms and Degrees)  !
 --------------------------                            --------------------------
 ! Name  Definition              Value          Derivative Info.                !
 --------------------------------------------------------------------------------
 ! R1    R(1,2)                  1.5216         estimate D2E/DX2                !
 ! R2    R(1,11)                 1.0897         estimate D2E/DX2                !
 ! R3    R(1,12)                 1.0926         estimate D2E/DX2                !
 ! R4    R(1,13)                 1.0958         estimate D2E/DX2                !
 ! R5    R(2,3)                  1.2265         estimate D2E/DX2                !
 ! R6    R(2,4)                  1.3855         estimate D2E/DX2                !
 ! R7    R(4,5)                  1.4721         estimate D2E/DX2                !
 ! R8    R(4,22)                 1.47           estimate D2E/DX2                !
 ! R9    R(5,6)                  1.5323         estimate D2E/DX2                !
 ! R10   R(5,14)                 1.0958         estimate D2E/DX2                !
 ! R11   R(5,15)                 1.0891         estimate D2E/DX2                !
 ! R12   R(6,7)                  1.2292         estimate D2E/DX2                !
 ! R13   R(6,8)                  1.3727         estimate D2E/DX2                !
 ! R14   R(8,9)                  1.4559         estimate D2E/DX2                !
 ! R15   R(8,10)                 1.4567         estimate D2E/DX2                !
 ! R16   R(9,16)                 1.0878         estimate D2E/DX2                !
 ! R17   R(9,17)                 1.0961         estimate D2E/DX2                !
 ! R18   R(9,18)                 1.0985         estimate D2E/DX2                !
 ! R19   R(10,19)                1.0968         estimate D2E/DX2                !
 ! R20   R(10,20)                1.0884         estimate D2E/DX2                !
 ! R21   R(10,21)                1.0974         estimate D2E/DX2                !
 ! R22   R(22,23)                1.0921         estimate D2E/DX2                !
 ! R23   R(22,24)                1.0928         estimate D2E/DX2                !
 ! R24   R(22,25)                1.5302         estimate D2E/DX2                !
 ! R25   R(25,26)                1.1039         estimate D2E/DX2                !
 ! R26   R(25,27)                1.1013         estimate D2E/DX2                !
 ! R27   R(25,28)                1.4122         estimate D2E/DX2                !
 ! R28   R(28,29)                1.4121         estimate D2E/DX2                !
 ! R29   R(29,30)                1.0923         estimate D2E/DX2                !
 ! R30   R(29,31)                1.1011         estimate D2E/DX2                !
 ! R31   R(29,32)                1.1016         estimate D2E/DX2                !
 ! A1    A(2,1,11)             107.2616         estimate D2E/DX2                !
 ! A2    A(2,1,12)             113.4275         estimate D2E/DX2                !
 ! A3    A(2,1,13)             110.4016         estimate D2E/DX2                !
 ! A4    A(11,1,12)            109.6563         estimate D2E/DX2                !
 ! A5    A(11,1,13)            108.2168         estimate D2E/DX2                !
 ! A6    A(12,1,13)            107.77           estimate D2E/DX2                !
 ! A7    A(1,2,3)              120.7442         estimate D2E/DX2                !
 ! A8    A(1,2,4)              117.8429         estimate D2E/DX2                !
 ! A9    A(3,2,4)              121.4032         estimate D2E/DX2                !
 ! A10   A(2,4,5)              115.6            estimate D2E/DX2                !
 ! A11   A(2,4,22)             122.2537         estimate D2E/DX2                !
 ! A12   A(5,4,22)             117.2484         estimate D2E/DX2                !
 ! A13   A(4,5,6)              113.1352         estimate D2E/DX2                !
 ! A14   A(4,5,14)             110.0831         estimate D2E/DX2                !
 ! A15   A(4,5,15)             107.5762         estimate D2E/DX2                !
 ! A16   A(6,5,14)             104.8119         estimate D2E/DX2                !
 ! A17   A(6,5,15)             113.3516         estimate D2E/DX2                !
 ! A18   A(14,5,15)            107.7385         estimate D2E/DX2                !
 ! A19   A(5,6,7)              119.6668         estimate D2E/DX2                !
 ! A20   A(5,6,8)              117.8559         estimate D2E/DX2                !
 ! A21   A(7,6,8)              122.4771         estimate D2E/DX2                !
 ! A22   A(6,8,9)              125.0511         estimate D2E/DX2                !
 ! A23   A(6,8,10)             118.9283         estimate D2E/DX2                !
 ! A24   A(9,8,10)             115.8012         estimate D2E/DX2                !
 ! A25   A(8,9,16)             111.4593         estimate D2E/DX2                !
 ! A26   A(8,9,17)             109.4179         estimate D2E/DX2                !
 ! A27   A(8,9,18)             111.3271         estimate D2E/DX2                !
 ! A28   A(16,9,17)            107.7728         estimate D2E/DX2                !
 ! A29   A(16,9,18)            108.931          estimate D2E/DX2                !
 ! A30   A(17,9,18)            107.7997         estimate D2E/DX2                !
 ! A31   A(8,10,19)            110.4493         estimate D2E/DX2                !
 ! A32   A(8,10,20)            108.3896         estimate D2E/DX2                !
 ! A33   A(8,10,21)            110.5926         estimate D2E/DX2                !
 ! A34   A(19,10,20)           109.6974         estimate D2E/DX2                !
 ! A35   A(19,10,21)           108.2305         estimate D2E/DX2                !
 ! A36   A(20,10,21)           109.4722         estimate D2E/DX2                !
 ! A37   A(4,22,23)            110.691          estimate D2E/DX2                !
 ! A38   A(4,22,24)            108.593          estimate D2E/DX2                !
 ! A39   A(4,22,25)            112.8258         estimate D2E/DX2                !
 ! A40   A(23,22,24)           107.0605         estimate D2E/DX2                !
 ! A41   A(23,22,25)           108.6231         estimate D2E/DX2                !
 ! A42   A(24,22,25)           108.871          estimate D2E/DX2                !
 ! A43   A(22,25,26)           110.3586         estimate D2E/DX2                !
 ! A44   A(22,25,27)           110.2066         estimate D2E/DX2                !
 ! A45   A(22,25,28)           107.0815         estimate D2E/DX2                !
 ! A46   A(26,25,27)           107.1413         estimate D2E/DX2                !
 ! A47   A(26,25,28)           110.937          estimate D2E/DX2                !
 ! A48   A(27,25,28)           111.1481         estimate D2E/DX2                !
 ! A49   A(25,28,29)           113.0455         estimate D2E/DX2                !
 ! A50   A(28,29,30)           107.2833         estimate D2E/DX2                !
 ! A51   A(28,29,31)           111.756          estimate D2E/DX2                !
 ! A52   A(28,29,32)           111.8228         estimate D2E/DX2                !
 ! A53   A(30,29,31)           108.8482         estimate D2E/DX2                !
 ! A54   A(30,29,32)           108.8265         estimate D2E/DX2                !
 ! A55   A(31,29,32)           108.2302         estimate D2E/DX2                !
 ! D1    D(11,1,2,3)           -15.4909         estimate D2E/DX2                !
 ! D2    D(11,1,2,4)           163.3952         estimate D2E/DX2                !
 ! D3    D(12,1,2,3)          -136.7246         estimate D2E/DX2                !
 ! D4    D(12,1,2,4)            42.1615         estimate D2E/DX2                !
 ! D5    D(13,1,2,3)           102.2087         estimate D2E/DX2                !
 ! D6    D(13,1,2,4)           -78.9052         estimate D2E/DX2                !
 ! D7    D(1,2,4,5)            168.8073         estimate D2E/DX2                !
 ! D8    D(1,2,4,22)            14.2966         estimate D2E/DX2                !
 ! D9    D(3,2,4,5)            -12.3144         estimate D2E/DX2                !
 ! D10   D(3,2,4,22)          -166.825          estimate D2E/DX2                !
 ! D11   D(2,4,5,6)            158.6698         Frozen                          !
 ! D12   D(2,4,5,14)           -84.4444         estimate D2E/DX2                !
 ! D13   D(2,4,5,15)            32.6911         estimate D2E/DX2                !
 ! D14   D(22,4,5,6)           -45.4952         estimate D2E/DX2                !
 ! D15   D(22,4,5,14)           71.3906         estimate D2E/DX2                !
 ! D16   D(22,4,5,15)         -171.4739         estimate D2E/DX2                !
 ! D17   D(2,4,22,23)           21.3379         estimate D2E/DX2                !
 ! D18   D(2,4,22,24)          138.5918         estimate D2E/DX2                !
 ! D19   D(2,4,22,25)         -100.6223         estimate D2E/DX2                !
 ! D20   D(5,4,22,23)         -132.7788         estimate D2E/DX2                !
 ! D21   D(5,4,22,24)          -15.5249         estimate D2E/DX2                !
 ! D22   D(5,4,22,25)          105.2611         estimate D2E/DX2                !
 ! D23   D(4,5,6,7)            100.4242         estimate D2E/DX2                !
 ! D24   D(4,5,6,8)            -79.4317         Scan                            !
 ! D25   D(14,5,6,7)           -19.5248         estimate D2E/DX2                !
 ! D26   D(14,5,6,8)           160.6192         estimate D2E/DX2                !
 ! D27   D(15,5,6,7)          -136.746          estimate D2E/DX2                !
 ! D28   D(15,5,6,8)            43.398          estimate D2E/DX2                !
 ! D29   D(5,6,8,9)             -2.0028         estimate D2E/DX2                !
 ! D30   D(5,6,8,10)          -176.3829         estimate D2E/DX2                !
 ! D31   D(7,6,8,9)            178.1456         estimate D2E/DX2                !
 ! D32   D(7,6,8,10)             3.7655         estimate D2E/DX2                !
 ! D33   D(6,8,9,16)            16.6642         estimate D2E/DX2                !
 ! D34   D(6,8,9,17)           135.7636         estimate D2E/DX2                !
 ! D35   D(6,8,9,18)          -105.1856         estimate D2E/DX2                !
 ! D36   D(10,8,9,16)         -168.7986         estimate D2E/DX2                !
 ! D37   D(10,8,9,17)          -49.6992         estimate D2E/DX2                !
 ! D38   D(10,8,9,18)           69.3515         estimate D2E/DX2                !
 ! D39   D(6,8,10,19)         -124.5792         estimate D2E/DX2                !
 ! D40   D(6,8,10,20)           -4.3775         estimate D2E/DX2                !
 ! D41   D(6,8,10,21)          115.6342         estimate D2E/DX2                !
 ! D42   D(9,8,10,19)           60.5295         estimate D2E/DX2                !
 ! D43   D(9,8,10,20)         -179.2689         estimate D2E/DX2                !
 ! D44   D(9,8,10,21)          -59.2571         estimate D2E/DX2                !
 ! D45   D(4,22,25,26)          55.4357         estimate D2E/DX2                !
 ! D46   D(4,22,25,27)         -62.6999         estimate D2E/DX2                !
 ! D47   D(4,22,25,28)         176.2839         estimate D2E/DX2                !
 ! D48   D(23,22,25,26)        -67.6823         estimate D2E/DX2                !
 ! D49   D(23,22,25,27)        174.1822         estimate D2E/DX2                !
 ! D50   D(23,22,25,28)         53.1659         estimate D2E/DX2                !
 ! D51   D(24,22,25,26)        176.0629         estimate D2E/DX2                !
 ! D52   D(24,22,25,27)         57.9273         estimate D2E/DX2                !
 ! D53   D(24,22,25,28)        -63.0889         estimate D2E/DX2                !
 ! D54   D(22,25,28,29)        177.1077         estimate D2E/DX2                !
 ! D55   D(26,25,28,29)        -62.4118         estimate D2E/DX2                !
 ! D56   D(27,25,28,29)         56.6895         estimate D2E/DX2                !
 ! D57   D(25,28,29,30)       -179.7244         estimate D2E/DX2                !
 ! D58   D(25,28,29,31)        -60.4852         estimate D2E/DX2                !
 ! D59   D(25,28,29,32)         61.024          estimate D2E/DX2                !
 --------------------------------------------------------------------------------
 Trust Radius=3.00D-01 FncErr=1.00D-07 GrdErr=1.00D-06
 Number of optimizations in scan=  37
 Number of steps in this run=    155 maximum allowed number of steps=    192.
 GradGradGradGradGradGradGradGradGradGradGradGradGradGradGradGradGradGrad

                          Input orientation:                          
 ---------------------------------------------------------------------
 Center     Atomic      Atomic             Coordinates (Angstroms)
 Number     Number       Type             X           Y           Z
 ---------------------------------------------------------------------
      1          6           0        3.050699    1.482241   -0.409721
      2          6           0        1.617914    1.915549   -0.136515
      3          8           0        1.267267    3.075903   -0.323655
      4          7           0        0.724055    0.953599    0.305515
      5          6           0       -0.566588    1.462794    0.797506
      6          6           0       -1.676575    0.406646    0.780103
      7          8           0       -1.983092   -0.171054    1.820933
      8          7           0       -2.291633    0.142303   -0.418228
      9          6           0       -2.000653    0.818205   -1.674409
     10          6           0       -3.403119   -0.798781   -0.447260
     11          1           0        3.514281    2.261072   -1.014645
     12          1           0        3.123161    0.522799   -0.927410
     13          1           0        3.610163    1.398927    0.528862
     14          1           0       -0.478166    1.758970    1.848825
     15          1           0       -0.809795    2.354189    0.220978
     16          1           0       -1.051587    1.348027   -1.630716
     17          1           0       -1.933633    0.077595   -2.479719
     18          1           0       -2.794496    1.530227   -1.938210
     19          1           0       -3.206609   -1.601753   -1.168022
     20          1           0       -3.521724   -1.220926    0.548933
     21          1           0       -4.330556   -0.291770   -0.742532
     22          6           0        1.165145   -0.356734    0.804935
     23          1           0        2.208390   -0.316303    1.125412
     24          1           0        0.569286   -0.613004    1.684410
     25          6           0        1.016212   -1.469208   -0.235095
     26          1           0        1.552223   -1.202242   -1.162431
     27          1           0       -0.044359   -1.602649   -0.500156
     28          8           0        1.550508   -2.645098    0.335905
     29          6           0        1.417650   -3.775317   -0.500163
     30          1           0        1.853240   -4.624724    0.030762
     31          1           0        0.362113   -3.997476   -0.721449
     32          1           0        1.949545   -3.642655   -1.455667
 ---------------------------------------------------------------------
                    Distance matrix (angstroms):
                    1          2          3          4          5
     1  C    0.000000
     2  C    1.521601   0.000000
     3  O    2.393281   1.226538   0.000000
     4  N    2.490843   1.385540   2.279278   0.000000
     5  C    3.813468   2.418560   2.687405   1.472105   0.000000
     6  C    4.991964   3.737731   4.124248   2.507472   1.532261
     7  O    5.748761   4.599213   5.070189   3.299997   2.392351
     8  N    5.507814   4.302130   4.613103   3.205679   2.489475
     9  C    5.249432   4.082072   4.195359   3.370825   2.929574
    10  C    6.845162   5.716198   6.069675   4.546545   3.835371
    11  H    1.089688   2.118185   2.488069   3.352263   4.535927
    12  H    1.092603   2.197962   3.213597   2.731557   4.180093
    13  H    1.095846   2.163026   3.004696   2.928792   4.185869
    14  H    4.198869   2.891305   3.082291   2.115600   1.095815
    15  H    4.007679   2.492785   2.265322   2.078821   1.089091
    16  H    4.282242   3.111423   3.173491   2.656590   2.478842
    17  H    5.576871   4.634886   4.887149   3.948192   3.811534
    18  H    6.041927   4.781625   4.636143   4.212719   3.528776
    19  H    7.017118   6.058997   6.527556   4.914393   4.497161
    20  H    7.170974   6.059966   6.492964   4.776447   3.999621
    21  H    7.598737   6.373681   6.546167   5.310220   4.429184
    22  C    2.900437   2.500919   3.614850   1.470018   2.511899
    23  H    2.510155   2.631024   3.806911   2.118521   3.312584
    24  H    3.864304   3.287700   4.257645   2.092737   2.527003
    25  C    3.588967   3.439236   4.552901   2.499522   3.488288
    26  H    3.165194   3.282901   4.368898   2.736490   3.928502
    27  H    4.370825   3.908082   4.862136   2.788184   3.369509
    28  O    4.454375   4.585545   5.765856   3.692502   4.644346
    29  C    5.506083   5.705988   6.855143   4.846941   5.749691
    30  H    6.238826   6.546643   7.731018   5.698091   6.595555
    31  H    6.111707   6.073142   7.142145   5.069398   5.743192
    32  H    5.345194   5.722217   6.847333   5.072390   6.121546
                    6          7          8          9         10
     6  C    0.000000
     7  O    1.229234   0.000000
     8  N    1.372651   2.281936   0.000000
     9  C    2.509788   3.632679   1.455851   0.000000
    10  C    2.437299   2.748676   1.456668   2.467276   0.000000
    11  H    5.796982   6.646567   6.209149   5.738611   7.585186
    12  H    5.095739   5.840260   5.451976   5.186400   6.676035
    13  H    5.384918   5.951369   6.107969   6.055815   7.414099
    14  H    2.099317   2.447565   3.322921   3.951732   4.513252
    15  H    2.203827   3.211438   2.738041   2.714753   4.136797
    16  H    2.662491   3.884481   2.112253   1.087817   3.396919
    17  H    3.286456   4.308118   2.093346   1.096138   2.656749
    18  H    3.146650   4.205222   2.118856   1.098523   2.831542
    19  H    3.189022   3.532385   2.107393   2.750810   1.096758
    20  H    2.471236   2.255572   2.075311   3.378604   1.088427
    21  H    3.138442   3.478004   2.109692   2.743882   1.097445
    22  C    2.942573   3.313325   3.700605   4.189261   4.757356
    23  H    3.966717   4.251278   4.779472   5.180941   5.847659
    24  H    2.627042   2.593953   3.629936   4.464819   4.512043
    25  C    3.435194   3.861124   3.684066   4.050353   4.474927
    26  H    4.097206   4.739437   4.139670   4.119133   5.022914
    27  H    2.887985   3.345983   2.846368   3.326633   3.454022
    28  O    4.463689   4.562075   4.806284   5.352249   5.344217
    29  C    5.357436   5.472042   5.395669   5.845006   5.665896
    30  H    6.191590   6.144699   6.332939   6.883718   6.518869
    31  H    5.080079   5.158023   4.926670   5.448080   4.948111
    32  H    5.877436   6.184962   5.778389   5.962481   6.144552
                   11         12         13         14         15
    11  H    0.000000
    12  H    1.783866   0.000000
    13  H    1.770565   1.767908   0.000000
    14  H    4.938745   4.712235   4.311191   0.000000
    15  H    4.498118   4.487864   4.532477   1.764695   0.000000
    16  H    4.696844   4.313254   5.137926   3.550337   2.121225
    17  H    6.049279   5.308393   6.444467   4.866385   3.706704
    18  H    6.417770   6.087306   6.864644   4.445148   3.046317
    19  H    7.753406   6.681138   7.638840   5.276384   4.829443
    20  H    8.004652   7.026711   7.597884   4.453397   4.499284
    21  H    8.254242   7.500373   8.217659   5.075586   4.508349
    22  C    3.960078   2.758337   3.022693   2.875131   3.404482
    23  H    3.595561   2.398953   2.294091   3.470975   4.130250
    24  H    4.921200   3.825432   3.824930   2.598163   3.584373
    25  C    4.556647   2.981044   3.941879   4.122744   4.261534
    26  H    3.983222   2.344962   3.723126   4.686034   4.487889
    27  H    5.277969   3.838393   4.839821   4.123880   4.094202
    28  O    5.454438   3.755632   4.542417   5.079396   5.529657
    29  C    6.410815   4.643825   5.713038   6.303983   6.561433
    30  H    7.160036   5.387744   6.294383   7.035080   7.472159
    31  H    7.013669   5.300820   6.421392   6.359957   6.527265
    32  H    6.123471   4.359752   5.666882   6.781667   6.810817
                   16         17         18         19         20
    16  H    0.000000
    17  H    1.764315   0.000000
    18  H    1.779180   1.773262   0.000000
    19  H    3.682310   2.482182   3.251511   0.000000
    20  H    4.177555   3.657994   3.779363   1.786690   0.000000
    21  H    3.772193   2.983201   2.666233   1.777738   1.784775
    22  C    3.708437   4.536521   5.173415   4.955287   4.772746
    23  H    4.581887   5.505314   6.150148   6.019505   5.829655
    24  H    4.178867   4.907291   5.388121   4.834395   4.288967
    25  C    3.763026   4.016531   5.139913   4.326677   4.611855
    26  H    3.674641   3.940104   5.192512   4.775576   5.354816
    27  H    3.316499   3.211113   4.409781   3.232007   3.652173
    28  O    5.155923   5.242140   6.440807   5.097110   5.272683
    29  C    5.798615   5.476739   6.925240   5.153076   5.658881
    30  H    6.846334   6.538710   7.960008   6.014774   6.383148
    31  H    5.603545   4.996816   6.480755   4.321423   4.940373
    32  H    5.826177   5.474305   7.035445   5.552832   6.310149
                   21         22         23         24         25
    21  H    0.000000
    22  C    5.709781   0.000000
    23  H    6.800561   1.092108   0.000000
    24  H    5.477380   1.092794   1.757035   0.000000
    25  C    5.498343   1.530177   2.145101   2.148797   0.000000
    26  H    5.967610   2.176061   2.539620   3.068855   1.103871
    27  H    4.488723   2.172203   3.061378   2.475538   1.101306
    28  O    6.425581   2.367510   2.545470   2.628815   1.412172
    29  C    6.725750   3.667935   3.902889   3.936026   2.355749
    30  H    7.590244   4.391874   4.459471   4.525150   3.275451
    31  H    5.979452   4.028612   4.513388   4.157611   2.656412
    32  H    7.153786   4.064835   4.218245   4.576460   2.661725
                   26         27         28         29         30
    26  H    0.000000
    27  H    1.774263   0.000000
    28  O    2.080107   2.080697   0.000000
    29  C    2.660343   2.618770   1.412110   0.000000
    30  H    3.636991   3.607727   2.025754   1.092297   0.000000
    31  H    3.069879   2.439136   2.087871   1.101127   1.784018
    32  H    2.489873   3.008368   2.089038   1.101589   1.784154
                   31         32
    31  H    0.000000
    32  H    1.784633   0.000000
 Stoichiometry    C9H18N2O3
 Framework group  C1[X(C9H18N2O3)]
 Deg. of freedom    90
 Full point group                 C1      NOp   1
 Largest Abelian subgroup         C1      NOp   1
 Largest concise Abelian subgroup C1      NOp   1
                         Standard orientation:                         
 ---------------------------------------------------------------------
 Center     Atomic      Atomic             Coordinates (Angstroms)
 Number     Number       Type             X           Y           Z
 ---------------------------------------------------------------------
      1          6           0       -3.050700   -1.482240   -0.409721
      2          6           0       -1.617915   -1.915548   -0.136515
      3          8           0       -1.267268   -3.075902   -0.323655
      4          7           0       -0.724055   -0.953599    0.305515
      5          6           0        0.566587   -1.462794    0.797506
      6          6           0        1.676575   -0.406647    0.780103
      7          8           0        1.983092    0.171053    1.820933
      8          7           0        2.291633   -0.142304   -0.418228
      9          6           0        2.000653   -0.818206   -1.674409
     10          6           0        3.403119    0.798779   -0.447260
     11          1           0       -3.514282   -2.261070   -1.014645
     12          1           0       -3.123161   -0.522798   -0.927410
     13          1           0       -3.610164   -1.398925    0.528862
     14          1           0        0.478165   -1.758970    1.848825
     15          1           0        0.809794   -2.354189    0.220978
     16          1           0        1.051586   -1.348028   -1.630716
     17          1           0        1.933633   -0.077596   -2.479719
     18          1           0        2.794495   -1.530228   -1.938210
     19          1           0        3.206610    1.601751   -1.168022
     20          1           0        3.521725    1.220924    0.548933
     21          1           0        4.330556    0.291768   -0.742532
     22          6           0       -1.165145    0.356735    0.804935
     23          1           0       -2.208390    0.316304    1.125412
     24          1           0       -0.569286    0.613004    1.684410
     25          6           0       -1.016211    1.469208   -0.235095
     26          1           0       -1.552222    1.202243   -1.162431
     27          1           0        0.044360    1.602649   -0.500156
     28          8           0       -1.550507    2.645099    0.335905
     29          6           0       -1.417648    3.775318   -0.500163
     30          1           0       -1.853238    4.624725    0.030762
     31          1           0       -0.362111    3.997476   -0.721449
     32          1           0       -1.949543    3.642656   -1.455667
 ---------------------------------------------------------------------
 Rotational constants (GHZ):      0.6148444      0.5691054      0.3601499
 Standard basis: 6-31G(d,p) (6D, 7F)
 There are   300 symmetry adapted basis functions of A   symmetry.
 Integral buffers will be    131072 words long.
 Raffenetti 2 integral format.
 Two-electron integral symmetry is turned on.
   300 basis functions,   518 primitive gaussians,   300 cartesian basis functions
    55 alpha electrons       55 beta electrons
       nuclear repulsion energy       983.7901498620 Hartrees.
 NAtoms=   32 NActive=   32 NUniq=   32 SFac= 1.00D+00 NAtFMM=   60 NAOKFM=F Big=F
 One-electron integrals computed using PRISM.
 NBasis=   300 RedAO= T  NBF=   300
 NBsUse=   300 1.00D-06 NBFU=   300
 Harris functional with IExCor=  402 diagonalized for initial guess.
 ExpMin= 1.61D-01 ExpMax= 5.48D+03 ExpMxC= 8.25D+02 IAcc=1 IRadAn=         1 AccDes= 0.00D+00
 HarFok:  IExCor=  402 AccDes= 0.00D+00 IRadAn=         1 IDoV= 1
 ScaDFX=  1.000000  1.000000  1.000000  1.000000
 FoFCou: FMM=F IPFlag=           0 FMFlag=      100000 FMFlg1=           0
         NFxFlg=           0 DoJE=T BraDBF=F KetDBF=T FulRan=T
         Omega=  0.000000  0.000000  1.000000  0.000000  0.000000 ICntrl=     500 IOpCl=  0
         NMat0=    1 NMatS0=    1 NMatT0=    0 NMatD0=    1 NMtDS0=    0 NMtDT0=    0
         I1Cent=           4 NGrid=           0.
 Petite list used in FoFCou.
 Initial guess orbital symmetries:
       Occupied  (A) (A) (A) (A) (A) (A) (A) (A) (A) (A) (A) (A)
                 (A) (A) (A) (A) (A) (A) (A) (A) (A) (A) (A) (A)
                 (A) (A) (A) (A) (A) (A) (A) (A) (A) (A) (A) (A)
                 (A) (A) (A) (A) (A) (A) (A) (A) (A) (A) (A) (A)
                 (A) (A) (A) (A) (A) (A) (A)
       Virtual   (A) (A) (A) (A) (A) (A) (A) (A) (A) (A) (A) (A)
                 (A) (A) (A) (A) (A) (A) (A) (A) (A) (A) (A) (A)
                 (A) (A) (A) (A) (A) (A) (A) (A) (A) (A) (A) (A)
                 (A) (A) (A) (A) (A) (A) (A) (A) (A) (A) (A) (A)
                 (A) (A) (A) (A) (A) (A) (A) (A) (A) (A) (A) (A)
                 (A) (A) (A) (A) (A) (A) (A) (A) (A) (A) (A) (A)
                 (A) (A) (A) (A) (A) (A) (A) (A) (A) (A) (A) (A)
                 (A) (A) (A) (A) (A) (A) (A) (A) (A) (A) (A) (A)
                 (A) (A) (A) (A) (A) (A) (A) (A) (A) (A) (A) (A)
                 (A) (A) (A) (A) (A) (A) (A) (A) (A) (A) (A) (A)
                 (A) (A) (A) (A) (A) (A) (A) (A) (A) (A) (A) (A)
                 (A) (A) (A) (A) (A) (A) (A) (A) (A) (A) (A) (A)
                 (A) (A) (A) (A) (A) (A) (A) (A) (A) (A) (A) (A)
                 (A) (A) (A) (A) (A) (A) (A) (A) (A) (A) (A) (A)
                 (A) (A) (A) (A) (A) (A) (A) (A) (A) (A) (A) (A)
                 (A) (A) (A) (A) (A) (A) (A) (A) (A) (A) (A) (A)
                 (A) (A) (A) (A) (A) (A) (A) (A) (A) (A) (A) (A)
                 (A) (A) (A) (A) (A) (A) (A) (A) (A) (A) (A) (A)
                 (A) (A) (A) (A) (A) (A) (A) (A) (A) (A) (A) (A)
                 (A) (A) (A) (A) (A) (A) (A) (A) (A) (A) (A) (A)
                 (A) (A) (A) (A) (A)
 The electronic state of the initial guess is 1-A.
 Requested convergence on RMS density matrix=1.00D-08 within 128 cycles.
 Requested convergence on MAX density matrix=1.00D-06.
 Requested convergence on             energy=1.00D-06.
 No special actions if energy rises.
 Keep R1 ints in memory in canonical form, NReq=1033483420.
 Integral accuracy reduced to 1.0D-05 until final iterations.
 Initial convergence to 1.0D-05 achieved.  Increase integral accuracy.
 SCF Done:  E(RB3LYP) =  -688.993241321     A.U. after   14 cycles
             Convg  =    0.7381D-08             -V/T =  2.0093

 **********************************************************************

            Population analysis using the SCF density.

 **********************************************************************

 Orbital symmetries:
       Occupied  (A) (A) (A) (A) (A) (A) (A) (A) (A) (A) (A) (A)
                 (A) (A) (A) (A) (A) (A) (A) (A) (A) (A) (A) (A)
                 (A) (A) (A) (A) (A) (A) (A) (A) (A) (A) (A) (A)
                 (A) (A) (A) (A) (A) (A) (A) (A) (A) (A) (A) (A)
                 (A) (A) (A) (A) (A) (A) (A)
       Virtual   (A) (A) (A) (A) (A) (A) (A) (A) (A) (A) (A) (A)
                 (A) (A) (A) (A) (A) (A) (A) (A) (A) (A) (A) (A)
                 (A) (A) (A) (A) (A) (A) (A) (A) (A) (A) (A) (A)
                 (A) (A) (A) (A) (A) (A) (A) (A) (A) (A) (A) (A)
                 (A) (A) (A) (A) (A) (A) (A) (A) (A) (A) (A) (A)
                 (A) (A) (A) (A) (A) (A) (A) (A) (A) (A) (A) (A)
                 (A) (A) (A) (A) (A) (A) (A) (A) (A) (A) (A) (A)
                 (A) (A) (A) (A) (A) (A) (A) (A) (A) (A) (A) (A)
                 (A) (A) (A) (A) (A) (A) (A) (A) (A) (A) (A) (A)
                 (A) (A) (A) (A) (A) (A) (A) (A) (A) (A) (A) (A)
                 (A) (A) (A) (A) (A) (A) (A) (A) (A) (A) (A) (A)
                 (A) (A) (A) (A) (A) (A) (A) (A) (A) (A) (A) (A)
                 (A) (A) (A) (A) (A) (A) (A) (A) (A) (A) (A) (A)
                 (A) (A) (A) (A) (A) (A) (A) (A) (A) (A) (A) (A)
                 (A) (A) (A) (A) (A) (A) (A) (A) (A) (A) (A) (A)
                 (A) (A) (A) (A) (A) (A) (A) (A) (A) (A) (A) (A)
                 (A) (A) (A) (A) (A) (A) (A) (A) (A) (A) (A) (A)
                 (A) (A) (A) (A) (A) (A) (A) (A) (A) (A) (A) (A)
                 (A) (A) (A) (A) (A) (A) (A) (A) (A) (A) (A) (A)
                 (A) (A) (A) (A) (A) (A) (A) (A) (A) (A) (A) (A)
                 (A) (A) (A) (A) (A)
 The electronic state is 1-A.
 Alpha  occ. eigenvalues --  -19.15589 -19.11374 -19.11350 -14.37265 -14.36982
 Alpha  occ. eigenvalues --  -10.28922 -10.28814 -10.23906 -10.23387 -10.22888
 Alpha  occ. eigenvalues --  -10.22504 -10.22351 -10.21745 -10.19392  -1.04042
 Alpha  occ. eigenvalues --   -1.03652  -1.03110  -0.93812  -0.93199  -0.77366
 Alpha  occ. eigenvalues --   -0.75676  -0.73161  -0.71735  -0.68723  -0.67172
 Alpha  occ. eigenvalues --   -0.62486  -0.55775  -0.54818  -0.51923  -0.50160
 Alpha  occ. eigenvalues --   -0.48837  -0.48394  -0.47794  -0.46963  -0.46528
 Alpha  occ. eigenvalues --   -0.45095  -0.44191  -0.42238  -0.42035  -0.41057
 Alpha  occ. eigenvalues --   -0.40927  -0.40662  -0.39994  -0.39033  -0.38300
 Alpha  occ. eigenvalues --   -0.37632  -0.36547  -0.36216  -0.35295  -0.32640
 Alpha  occ. eigenvalues --   -0.26325  -0.25733  -0.25016  -0.24656  -0.23931
 Alpha virt. eigenvalues --    0.01273   0.02042   0.06784   0.08662   0.08947
 Alpha virt. eigenvalues --    0.12281   0.12486   0.12980   0.13266   0.13748
 Alpha virt. eigenvalues --    0.14457   0.15234   0.15849   0.16012   0.16386
 Alpha virt. eigenvalues --    0.16502   0.17221   0.17256   0.18408   0.18779
 Alpha virt. eigenvalues --    0.19386   0.20501   0.21611   0.21697   0.22212
 Alpha virt. eigenvalues --    0.22880   0.25892   0.27326   0.28129   0.32811
 Alpha virt. eigenvalues --    0.35649   0.36679   0.40626   0.47154   0.47779
 Alpha virt. eigenvalues --    0.49651   0.50000   0.50406   0.52098   0.53179
 Alpha virt. eigenvalues --    0.53471   0.55564   0.55806   0.56534   0.58246
 Alpha virt. eigenvalues --    0.59100   0.61230   0.61762   0.63297   0.65409
 Alpha virt. eigenvalues --    0.66375   0.67328   0.68412   0.69194   0.71145
 Alpha virt. eigenvalues --    0.73300   0.74100   0.75237   0.75732   0.76550
 Alpha virt. eigenvalues --    0.77647   0.79609   0.80706   0.81399   0.82463
 Alpha virt. eigenvalues --    0.83233   0.83788   0.84439   0.85509   0.86193
 Alpha virt. eigenvalues --    0.87109   0.87675   0.88051   0.89337   0.90515
 Alpha virt. eigenvalues --    0.90661   0.92819   0.93184   0.93836   0.94518
 Alpha virt. eigenvalues --    0.96097   0.97540   0.98395   0.99421   1.00536
 Alpha virt. eigenvalues --    1.01869   1.03520   1.05834   1.07523   1.10471
 Alpha virt. eigenvalues --    1.12566   1.14538   1.17287   1.18544   1.20426
 Alpha virt. eigenvalues --    1.25923   1.27179   1.28403   1.29041   1.31618
 Alpha virt. eigenvalues --    1.35402   1.36827   1.37614   1.38887   1.39182
 Alpha virt. eigenvalues --    1.41612   1.43178   1.47010   1.49769   1.51961
 Alpha virt. eigenvalues --    1.56587   1.59115   1.60474   1.62200   1.63573
 Alpha virt. eigenvalues --    1.68834   1.70868   1.71304   1.71603   1.73200
 Alpha virt. eigenvalues --    1.75580   1.76642   1.78537   1.81762   1.82391
 Alpha virt. eigenvalues --    1.83297   1.86137   1.86690   1.87203   1.87478
 Alpha virt. eigenvalues --    1.88807   1.89623   1.91807   1.93426   1.93633
 Alpha virt. eigenvalues --    1.95493   1.96755   1.97387   1.97655   2.00292
 Alpha virt. eigenvalues --    2.00654   2.01840   2.02326   2.02730   2.02752
 Alpha virt. eigenvalues --    2.03067   2.03400   2.04066   2.05172   2.06325
 Alpha virt. eigenvalues --    2.08228   2.08891   2.09259   2.09934   2.10920
 Alpha virt. eigenvalues --    2.11994   2.13977   2.16687   2.17386   2.20887
 Alpha virt. eigenvalues --    2.22554   2.23686   2.28031   2.28426   2.29218
 Alpha virt. eigenvalues --    2.30381   2.32381   2.33927   2.38636   2.40868
 Alpha virt. eigenvalues --    2.41397   2.43417   2.47393   2.48605   2.51231
 Alpha virt. eigenvalues --    2.51919   2.53119   2.54924   2.55587   2.57586
 Alpha virt. eigenvalues --    2.58821   2.60745   2.62512   2.62854   2.63405
 Alpha virt. eigenvalues --    2.64701   2.67136   2.68650   2.68837   2.70006
 Alpha virt. eigenvalues --    2.70891   2.71630   2.73673   2.74338   2.79272
 Alpha virt. eigenvalues --    2.80027   2.81467   2.83294   2.84006   2.85836
 Alpha virt. eigenvalues --    2.87340   2.88349   2.89627   2.89943   2.91750
 Alpha virt. eigenvalues --    2.96050   2.97440   2.99082   3.04714   3.07118
 Alpha virt. eigenvalues --    3.10895   3.11313   3.14661   3.17014   3.17626
 Alpha virt. eigenvalues --    3.23472   3.24257   3.27035   3.33952   3.36254
 Alpha virt. eigenvalues --    3.38504   3.38969   3.42225   3.42755   3.42837
 Alpha virt. eigenvalues --    3.43575   3.43797   3.45551   3.48425   3.50432
 Alpha virt. eigenvalues --    3.55768   3.95373   4.01975   4.06256   4.11182
 Alpha virt. eigenvalues --    4.18582   4.31643   4.38640   4.40026   4.44918
 Alpha virt. eigenvalues --    4.50330   4.52526   4.62077   4.71140   4.71796
          Condensed to atoms (all electrons):
              1          2          3          4          5          6
     1  C    5.141262   0.357533  -0.078883  -0.120437   0.006005  -0.000045
     2  C    0.357533   4.371582   0.577660   0.255288  -0.024652   0.003543
     3  O   -0.078883   0.577660   8.084334  -0.101381  -0.001348   0.000822
     4  N   -0.120437   0.255288  -0.101381   7.158135   0.255310  -0.039160
     5  C    0.006005  -0.024652  -0.001348   0.255310   5.035920   0.322600
     6  C   -0.000045   0.003543   0.000822  -0.039160   0.322600   4.463646
     7  O    0.000000  -0.000172  -0.000002  -0.001360  -0.074625   0.541153
     8  N    0.000001   0.000149   0.000033   0.004381  -0.109954   0.270002
     9  C   -0.000025  -0.000857  -0.000566  -0.001521   0.002923  -0.023996
    10  C    0.000000   0.000006   0.000000  -0.000147   0.005527  -0.028756
    11  H    0.369210  -0.022994   0.004387   0.004429  -0.000110   0.000002
    12  H    0.357494  -0.022093   0.002376   0.002931  -0.000056  -0.000002
    13  H    0.367446  -0.022033   0.000481   0.001187  -0.000285  -0.000009
    14  H   -0.000069  -0.001286   0.001935  -0.039429   0.369801  -0.031409
    15  H    0.000957  -0.007650   0.018465  -0.038420   0.363076  -0.021742
    16  H    0.000077   0.003415   0.002295   0.000200   0.002501  -0.008684
    17  H    0.000001  -0.000015   0.000001  -0.000043  -0.000132   0.002443
    18  H    0.000000   0.000005  -0.000008   0.000186  -0.000222  -0.001770
    19  H    0.000000   0.000000   0.000000   0.000017  -0.000147   0.002446
    20  H    0.000000   0.000001   0.000000  -0.000012   0.001008  -0.003129
    21  H    0.000000   0.000000   0.000000  -0.000002  -0.000174  -0.000196
    22  C    0.001379  -0.028348   0.002085   0.224217  -0.038339  -0.000425
    23  H    0.005728  -0.008200   0.000178  -0.032838   0.002962   0.000180
    24  H   -0.000323   0.001928  -0.000081  -0.030590  -0.006376  -0.001560
    25  C   -0.001878  -0.001015  -0.000031  -0.048608   0.000067  -0.000589
    26  H   -0.001440   0.001392  -0.000039   0.003603   0.000248  -0.000132
    27  H    0.000091   0.000009   0.000002   0.002637  -0.000924   0.002781
    28  O   -0.000006   0.000031   0.000000   0.002001  -0.000027  -0.000047
    29  C    0.000002  -0.000003   0.000000  -0.000119   0.000001  -0.000002
    30  H    0.000000   0.000000   0.000000   0.000001   0.000000   0.000000
    31  H    0.000000   0.000000   0.000000   0.000006  -0.000001  -0.000001
    32  H   -0.000003   0.000000   0.000000   0.000012   0.000000   0.000000
              7          8          9         10         11         12
     1  C    0.000000   0.000001  -0.000025   0.000000   0.369210   0.357494
     2  C   -0.000172   0.000149  -0.000857   0.000006  -0.022994  -0.022093
     3  O   -0.000002   0.000033  -0.000566   0.000000   0.004387   0.002376
     4  N   -0.001360   0.004381  -0.001521  -0.000147   0.004429   0.002931
     5  C   -0.074625  -0.109954   0.002923   0.005527  -0.000110  -0.000056
     6  C    0.541153   0.270002  -0.023996  -0.028756   0.000002  -0.000002
     7  O    8.116009  -0.095178   0.002779  -0.012747   0.000000   0.000000
     8  N   -0.095178   7.012861   0.288853   0.291240   0.000000  -0.000001
     9  C    0.002779   0.288853   4.815825  -0.051052   0.000001   0.000012
    10  C   -0.012747   0.291240  -0.051052   4.825713   0.000000   0.000000
    11  H    0.000000   0.000000   0.000001   0.000000   0.545070  -0.023695
    12  H    0.000000  -0.000001   0.000012   0.000000  -0.023695   0.586196
    13  H    0.000000   0.000000   0.000000   0.000000  -0.021470  -0.028763
    14  H    0.003922   0.005536   0.000124  -0.000153  -0.000004  -0.000009
    15  H    0.002766  -0.000365  -0.001842  -0.000188  -0.000016  -0.000043
    16  H    0.000032  -0.026189   0.385138   0.004006  -0.000004  -0.000050
    17  H   -0.000047  -0.042544   0.383267  -0.003737   0.000000   0.000000
    18  H   -0.000025  -0.045160   0.383376  -0.000762   0.000000   0.000000
    19  H    0.000651  -0.043828  -0.002901   0.383143   0.000000   0.000000
    20  H    0.024650  -0.036055   0.004362   0.383276   0.000000   0.000000
    21  H    0.000707  -0.045505  -0.000395   0.388260   0.000000   0.000000
    22  C   -0.003404  -0.001535  -0.000188   0.000021   0.000341  -0.001578
    23  H    0.000088  -0.000012   0.000000   0.000000  -0.000027  -0.002415
    24  H    0.012397   0.000079  -0.000032  -0.000008  -0.000011   0.000226
    25  C   -0.000207  -0.001318   0.000305  -0.000037   0.000035  -0.000283
    26  H    0.000004   0.000074   0.000035  -0.000001  -0.000048   0.004859
    27  H   -0.000261   0.003898  -0.000017   0.000072   0.000000  -0.000094
    28  O   -0.000003   0.000021   0.000000  -0.000001  -0.000001  -0.000064
    29  C   -0.000001   0.000005   0.000000  -0.000002   0.000000  -0.000008
    30  H    0.000000   0.000000   0.000000   0.000000   0.000000   0.000000
    31  H    0.000000  -0.000013   0.000000   0.000003   0.000000   0.000000
    32  H    0.000000   0.000000   0.000000   0.000000   0.000000   0.000008
             13         14         15         16         17         18
     1  C    0.367446  -0.000069   0.000957   0.000077   0.000001   0.000000
     2  C   -0.022033  -0.001286  -0.007650   0.003415  -0.000015   0.000005
     3  O    0.000481   0.001935   0.018465   0.002295   0.000001  -0.000008
     4  N    0.001187  -0.039429  -0.038420   0.000200  -0.000043   0.000186
     5  C   -0.000285   0.369801   0.363076   0.002501  -0.000132  -0.000222
     6  C   -0.000009  -0.031409  -0.021742  -0.008684   0.002443  -0.001770
     7  O    0.000000   0.003922   0.002766   0.000032  -0.000047  -0.000025
     8  N    0.000000   0.005536  -0.000365  -0.026189  -0.042544  -0.045160
     9  C    0.000000   0.000124  -0.001842   0.385138   0.383267   0.383376
    10  C    0.000000  -0.000153  -0.000188   0.004006  -0.003737  -0.000762
    11  H   -0.021470  -0.000004  -0.000016  -0.000004   0.000000   0.000000
    12  H   -0.028763  -0.000009  -0.000043  -0.000050   0.000000   0.000000
    13  H    0.562815   0.000063  -0.000023   0.000003   0.000000   0.000000
    14  H    0.000063   0.586396  -0.032151   0.000316  -0.000016   0.000045
    15  H   -0.000023  -0.032151   0.560357  -0.001432   0.000176   0.000223
    16  H    0.000003   0.000316  -0.001432   0.543933  -0.025072  -0.030091
    17  H    0.000000  -0.000016   0.000176  -0.025072   0.611497  -0.046223
    18  H    0.000000   0.000045   0.000223  -0.030091  -0.046223   0.614999
    19  H    0.000000   0.000002  -0.000007   0.000079   0.007033  -0.001422
    20  H    0.000000  -0.000028  -0.000040  -0.000219   0.000005  -0.000115
    21  H    0.000000   0.000008  -0.000003  -0.000050  -0.002238   0.005888
    22  C   -0.002295  -0.005521   0.005330  -0.000303   0.000050  -0.000013
    23  H    0.002418   0.000485  -0.000208   0.000017   0.000000   0.000000
    24  H    0.000152   0.003565   0.000277   0.000010   0.000014  -0.000002
    25  C    0.000030  -0.000145  -0.000137   0.000098   0.000146  -0.000002
    26  H    0.000099   0.000002   0.000011   0.000080  -0.000008   0.000001
    27  H   -0.000006   0.000090  -0.000049  -0.000018  -0.000213   0.000059
    28  O   -0.000008   0.000004   0.000000   0.000001  -0.000001   0.000000
    29  C    0.000000   0.000000   0.000000   0.000000  -0.000001   0.000000
    30  H    0.000000   0.000000   0.000000   0.000000   0.000000   0.000000
    31  H    0.000000   0.000000   0.000000   0.000000   0.000003   0.000000
    32  H    0.000000   0.000000   0.000000   0.000000   0.000000   0.000000
             19         20         21         22         23         24
     1  C    0.000000   0.000000   0.000000   0.001379   0.005728  -0.000323
     2  C    0.000000   0.000001   0.000000  -0.028348  -0.008200   0.001928
     3  O    0.000000   0.000000   0.000000   0.002085   0.000178  -0.000081
     4  N    0.000017  -0.000012  -0.000002   0.224217  -0.032838  -0.030590
     5  C   -0.000147   0.001008  -0.000174  -0.038339   0.002962  -0.006376
     6  C    0.002446  -0.003129  -0.000196  -0.000425   0.000180  -0.001560
     7  O    0.000651   0.024650   0.000707  -0.003404   0.000088   0.012397
     8  N   -0.043828  -0.036055  -0.045505  -0.001535  -0.000012   0.000079
     9  C   -0.002901   0.004362  -0.000395  -0.000188   0.000000  -0.000032
    10  C    0.383143   0.383276   0.388260   0.000021   0.000000  -0.000008
    11  H    0.000000   0.000000   0.000000   0.000341  -0.000027  -0.000011
    12  H    0.000000   0.000000   0.000000  -0.001578  -0.002415   0.000226
    13  H    0.000000   0.000000   0.000000  -0.002295   0.002418   0.000152
    14  H    0.000002  -0.000028   0.000008  -0.005521   0.000485   0.003565
    15  H   -0.000007  -0.000040  -0.000003   0.005330  -0.000208   0.000277
    16  H    0.000079  -0.000219  -0.000050  -0.000303   0.000017   0.000010
    17  H    0.007033   0.000005  -0.002238   0.000050   0.000000   0.000014
    18  H   -0.001422  -0.000115   0.005888  -0.000013   0.000000  -0.000002
    19  H    0.613687  -0.024326  -0.044151   0.000000   0.000000   0.000008
    20  H   -0.024326   0.512782  -0.024669   0.000007   0.000000  -0.000015
    21  H   -0.044151  -0.024669   0.607260  -0.000001   0.000000  -0.000002
    22  C    0.000000   0.000007  -0.000001   4.944736   0.376456   0.373486
    23  H    0.000000   0.000000   0.000000   0.376456   0.601320  -0.027180
    24  H    0.000008  -0.000015  -0.000002   0.373486  -0.027180   0.555839
    25  C    0.000079  -0.000003   0.000000   0.365224  -0.046372  -0.040095
    26  H   -0.000007   0.000000   0.000000  -0.044830  -0.007592   0.006129
    27  H    0.000178  -0.000013   0.000028  -0.036690   0.006561  -0.008303
    28  O   -0.000003   0.000000   0.000000  -0.040494   0.006396   0.004947
    29  C   -0.000004   0.000000   0.000000   0.004651  -0.000093  -0.000087
    30  H    0.000000   0.000000   0.000000  -0.000261   0.000008   0.000008
    31  H    0.000043   0.000000   0.000000   0.000051   0.000061  -0.000059
    32  H    0.000000   0.000000   0.000000  -0.000011  -0.000069   0.000039
             25         26         27         28         29         30
     1  C   -0.001878  -0.001440   0.000091  -0.000006   0.000002   0.000000
     2  C   -0.001015   0.001392   0.000009   0.000031  -0.000003   0.000000
     3  O   -0.000031  -0.000039   0.000002   0.000000   0.000000   0.000000
     4  N   -0.048608   0.003603   0.002637   0.002001  -0.000119   0.000001
     5  C    0.000067   0.000248  -0.000924  -0.000027   0.000001   0.000000
     6  C   -0.000589  -0.000132   0.002781  -0.000047  -0.000002   0.000000
     7  O   -0.000207   0.000004  -0.000261  -0.000003  -0.000001   0.000000
     8  N   -0.001318   0.000074   0.003898   0.000021   0.000005   0.000000
     9  C    0.000305   0.000035  -0.000017   0.000000   0.000000   0.000000
    10  C   -0.000037  -0.000001   0.000072  -0.000001  -0.000002   0.000000
    11  H    0.000035  -0.000048   0.000000  -0.000001   0.000000   0.000000
    12  H   -0.000283   0.004859  -0.000094  -0.000064  -0.000008   0.000000
    13  H    0.000030   0.000099  -0.000006  -0.000008   0.000000   0.000000
    14  H   -0.000145   0.000002   0.000090   0.000004   0.000000   0.000000
    15  H   -0.000137   0.000011  -0.000049   0.000000   0.000000   0.000000
    16  H    0.000098   0.000080  -0.000018   0.000001   0.000000   0.000000
    17  H    0.000146  -0.000008  -0.000213  -0.000001  -0.000001   0.000000
    18  H   -0.000002   0.000001   0.000059   0.000000   0.000000   0.000000
    19  H    0.000079  -0.000007   0.000178  -0.000003  -0.000004   0.000000
    20  H   -0.000003   0.000000  -0.000013   0.000000   0.000000   0.000000
    21  H    0.000000   0.000000   0.000028   0.000000   0.000000   0.000000
    22  C    0.365224  -0.044830  -0.036690  -0.040494   0.004651  -0.000261
    23  H   -0.046372  -0.007592   0.006561   0.006396  -0.000093   0.000008
    24  H   -0.040095   0.006129  -0.008303   0.004947  -0.000087   0.000008
    25  C    4.775833   0.359961   0.362428   0.229665  -0.034321   0.005312
    26  H    0.359961   0.695630  -0.060011  -0.039688  -0.005823  -0.000121
    27  H    0.362428  -0.060011   0.667582  -0.036742  -0.006468  -0.000079
    28  O    0.229665  -0.039688  -0.036742   8.205816   0.259661  -0.032839
    29  C   -0.034321  -0.005823  -0.006468   0.259661   4.706320   0.395192
    30  H    0.005312  -0.000121  -0.000079  -0.032839   0.395192   0.583504
    31  H   -0.008681  -0.002676   0.013451  -0.037803   0.370610  -0.034459
    32  H   -0.009320   0.012994  -0.002749  -0.037633   0.369372  -0.035215
             31         32
     1  C    0.000000  -0.000003
     2  C    0.000000   0.000000
     3  O    0.000000   0.000000
     4  N    0.000006   0.000012
     5  C   -0.000001   0.000000
     6  C   -0.000001   0.000000
     7  O    0.000000   0.000000
     8  N   -0.000013   0.000000
     9  C    0.000000   0.000000
    10  C    0.000003   0.000000
    11  H    0.000000   0.000000
    12  H    0.000000   0.000008
    13  H    0.000000   0.000000
    14  H    0.000000   0.000000
    15  H    0.000000   0.000000
    16  H    0.000000   0.000000
    17  H    0.000003   0.000000
    18  H    0.000000   0.000000
    19  H    0.000043   0.000000
    20  H    0.000000   0.000000
    21  H    0.000000   0.000000
    22  C    0.000051  -0.000011
    23  H    0.000061  -0.000069
    24  H   -0.000059   0.000039
    25  C   -0.008681  -0.009320
    26  H   -0.002676   0.012994
    27  H    0.013451  -0.002749
    28  O   -0.037803  -0.037633
    29  C    0.370610   0.369372
    30  H   -0.034459  -0.035215
    31  H    0.658863  -0.052934
    32  H   -0.052934   0.665446
 Mulliken atomic charges:
              1
     1  C   -0.404074
     2  C    0.566773
     3  O   -0.512716
     4  N   -0.460476
     5  C   -0.110579
     6  C    0.552036
     7  O   -0.517126
     8  N   -0.429479
     9  C   -0.183606
    10  C   -0.183677
    11  H    0.144904
    12  H    0.125053
    13  H    0.140199
    14  H    0.137926
    15  H    0.152677
    16  H    0.149910
    17  H    0.115653
    18  H    0.121034
    19  H    0.109430
    20  H    0.162532
    21  H    0.115232
    22  C   -0.093801
    23  H    0.122149
    24  H    0.155619
    25  C    0.093861
    26  H    0.077293
    27  H    0.092770
    28  O   -0.483182
    29  C   -0.058884
    30  H    0.118949
    31  H    0.093537
    32  H    0.090063
 Sum of Mulliken atomic charges =   0.00000
 Mulliken charges with hydrogens summed into heavy atoms:
              1
     1  C    0.006081
     2  C    0.566773
     3  O   -0.512716
     4  N   -0.460476
     5  C    0.180025
     6  C    0.552036
     7  O   -0.517126
     8  N   -0.429479
     9  C    0.202991
    10  C    0.203517
    22  C    0.183967
    25  C    0.263924
    28  O   -0.483182
    29  C    0.243664
 Sum of Mulliken charges with hydrogens summed into heavy atoms =   0.00000
 Electronic spatial extent (au):  <R**2>=           3350.4433
 Charge=              0.0000 electrons
 Dipole moment (field-independent basis, Debye):
    X=              0.0042    Y=              2.3123    Z=             -3.2979  Tot=              4.0277
 Quadrupole moment (field-independent basis, Debye-Ang):
   XX=            -78.3500   YY=            -92.1727   ZZ=            -87.6681
   XY=             -3.2490   XZ=             -6.9048   YZ=             -5.8207
 Traceless Quadrupole moment (field-independent basis, Debye-Ang):
   XX=              7.7136   YY=             -6.1091   ZZ=             -1.6045
   XY=             -3.2490   XZ=             -6.9048   YZ=             -5.8207
 Octapole moment (field-independent basis, Debye-Ang**2):
  XXX=              1.3077  YYY=             71.9495  ZZZ=             -8.1846  XYY=             15.0159
  XXY=             -5.1471  XXZ=            -16.9105  XZZ=            -10.3363  YZZ=             -5.3162
  YYZ=             -1.2253  XYZ=              4.9469
 Hexadecapole moment (field-independent basis, Debye-Ang**3):
 XXXX=          -1923.7435 YYYY=          -1809.1625 ZZZZ=           -509.8612 XXXY=             38.5212
 XXXZ=            -27.0248 YYYX=           -102.2990 YYYZ=            -35.8301 ZZZX=            -23.3290
 ZZZY=              2.9421 XXYY=           -624.0868 XXZZ=           -432.0903 YYZZ=           -374.1984
 XXYZ=             -3.4603 YYXZ=              8.9728 ZZXY=             -3.3060
 N-N= 9.837901498620D+02 E-N=-3.573051100875D+03  KE= 6.826252511516D+02
 Calling FoFJK, ICntrl=      2127 FMM=F ISym2X=0 I1Cent= 0 IOpClX= 0 NMat=1 NMatS=1 NMatT=0.
 ***** Axes restored to original set *****
 -------------------------------------------------------------------
 Center     Atomic                   Forces (Hartrees/Bohr)
 Number     Number              X              Y              Z
 -------------------------------------------------------------------
      1        6           0.000001043   -0.000000842   -0.000001549
      2        6          -0.001488031   -0.000276059   -0.003625954
      3        8           0.000001205   -0.000003006   -0.000002165
      4        7           0.001745147    0.000781429    0.003770992
      5        6           0.000603499   -0.001456428    0.003085397
      6        6          -0.000856348    0.000954962   -0.003233982
      7        8           0.000001526    0.000003501    0.000000199
      8        7           0.000000080    0.000001771    0.000000681
      9        6          -0.000001552   -0.000001465    0.000000259
     10        6          -0.000000732    0.000000597    0.000000917
     11        1           0.000000668   -0.000002644   -0.000003654
     12        1          -0.000000349   -0.000002094   -0.000002632
     13        1           0.000000925   -0.000001194   -0.000002911
     14        1           0.000001902    0.000001683   -0.000001532
     15        1           0.000001692    0.000000446   -0.000001969
     16        1           0.000000520   -0.000000160   -0.000000594
     17        1          -0.000000641   -0.000000842    0.000000426
     18        1           0.000000154   -0.000000421    0.000000164
     19        1          -0.000001498    0.000000148    0.000002599
     20        1           0.000000513    0.000002789    0.000001901
     21        1          -0.000000250    0.000001927    0.000001825
     22        6           0.000001159    0.000000602   -0.000000157
     23        1           0.000000332    0.000000472   -0.000000593
     24        1           0.000000286    0.000001311    0.000000138
     25        6          -0.000001945    0.000000467   -0.000001563
     26        1          -0.000000442   -0.000001886    0.000000712
     27        1          -0.000000479   -0.000000933    0.000002010
     28        8          -0.000000625   -0.000001471    0.000000690
     29        6          -0.000002075    0.000000993    0.000003684
     30        1          -0.000001859   -0.000000682    0.000002731
     31        1          -0.000002051   -0.000000793    0.000002603
     32        1          -0.000001775   -0.000002177    0.000001328
 -------------------------------------------------------------------
 Cartesian Forces:  Max     0.003770992 RMS     0.000773411

 GradGradGradGradGradGradGradGradGradGradGradGradGradGradGradGradGradGrad
 Berny optimization.
 Internal  Forces:  Max     0.003551227 RMS     0.000476458
 Search for a local minimum.
 Step number   1 out of a maximum of  155 on scan point     1 out of    37
 All quantities printed in internal units (Hartrees-Bohrs-Radians)
 Mixed Optimization -- En-DIIS/RFO-DIIS
 Second derivative matrix not updated -- first step.
 ITU=  0
     Eigenvalues ---    0.00367   0.00480   0.00766   0.00772   0.00942
     Eigenvalues ---    0.00953   0.01047   0.01186   0.01263   0.01531
     Eigenvalues ---    0.01532   0.01883   0.02054   0.02793   0.04130
     Eigenvalues ---    0.05380   0.05493   0.05890   0.06389   0.06865
     Eigenvalues ---    0.07241   0.07477   0.07498   0.07543   0.07658
     Eigenvalues ---    0.09396   0.09937   0.10038   0.10511   0.10877
     Eigenvalues ---    0.11072   0.12872   0.13595   0.16000   0.16000
     Eigenvalues ---    0.16000   0.16000   0.16000   0.16000   0.16000
     Eigenvalues ---    0.16000   0.16000   0.16000   0.16000   0.16000
     Eigenvalues ---    0.21925   0.21964   0.21984   0.22245   0.23511
     Eigenvalues ---    0.24877   0.24933   0.24996   0.25000   0.25000
     Eigenvalues ---    0.25000   0.25000   0.29216   0.29407   0.30213
     Eigenvalues ---    0.33258   0.33507   0.33538   0.33558   0.33846
     Eigenvalues ---    0.33966   0.34043   0.34113   0.34146   0.34149
     Eigenvalues ---    0.34492   0.34514   0.34549   0.34570   0.34849
     Eigenvalues ---    0.34918   0.34995   0.35066   0.35489   0.35738
     Eigenvalues ---    0.37385   0.37489   0.43661   0.43671   0.48103
     Eigenvalues ---    0.50471   0.91406   0.925441000.000001000.00000
     Eigenvalues --- 1000.000001000.000001000.000001000.000001000.00000
     Eigenvalues --- 1000.000001000.000001000.000001000.000001000.00000
     Eigenvalues --- 1000.000001000.000001000.000001000.000001000.00000
     Eigenvalues --- 1000.000001000.000001000.000001000.000001000.00000
     Eigenvalues --- 1000.000001000.000001000.000001000.000001000.00000
     Eigenvalues --- 1000.000001000.000001000.000001000.000001000.00000
     Eigenvalues --- 1000.000001000.000001000.000001000.000001000.00000
     Eigenvalues --- 1000.000001000.000001000.000001000.000001000.00000
     Eigenvalues --- 1000.000001000.000001000.000001000.000001000.00000
     Eigenvalues --- 1000.000001000.000001000.000001000.000001000.00000
     Eigenvalues --- 1000.000001000.000001000.000001000.000001000.00000
 RFO step:  Lambda= 0.00000000D+00 EMin= 3.66762764D-03
 Linear search not attempted -- first point.
 Iteration  1 RMS(Cart)=  0.00002199 RMS(Int)=  0.00000000
 Iteration  2 RMS(Cart)=  0.00000000 RMS(Int)=  0.00000000
 Iteration  1 RMS(Cart)=  0.00000000 RMS(Int)=  0.00000000
 Variable       Old X    -DE/DX   Delta X   Delta X   Delta X     New X
                                 (Linear)    (Quad)   (Total)
    R1        2.87541   0.00000   0.00000   0.00000   0.00000   2.87541
    R2        2.05921   0.00000   0.00000   0.00000   0.00000   2.05921
    R3        2.06472   0.00000   0.00000   0.00000   0.00000   2.06472
    R4        2.07085   0.00000   0.00000   0.00000   0.00000   2.07085
    R5        2.31782   0.00000   0.00000   0.00000   0.00000   2.31782
    R6        2.61829   0.00000   0.00000   0.00000   0.00000   2.61830
    R7        2.78188   0.00000   0.00000   0.00000   0.00000   2.78187
    R8        2.77793   0.00000   0.00000   0.00000   0.00000   2.77793
    R9        2.89555   0.00000   0.00000   0.00000   0.00000   2.89555
   R10        2.07079   0.00000   0.00000   0.00000   0.00000   2.07079
   R11        2.05808   0.00000   0.00000   0.00000   0.00000   2.05808
   R12        2.32292   0.00000   0.00000   0.00000   0.00000   2.32291
   R13        2.59393   0.00000   0.00000   0.00000   0.00000   2.59394
   R14        2.75116   0.00000   0.00000   0.00000   0.00000   2.75116
   R15        2.75270   0.00000   0.00000   0.00000   0.00000   2.75271
   R16        2.05568   0.00000   0.00000   0.00000   0.00000   2.05568
   R17        2.07140   0.00000   0.00000   0.00000   0.00000   2.07140
   R18        2.07591   0.00000   0.00000   0.00000   0.00000   2.07591
   R19        2.07257   0.00000   0.00000   0.00000   0.00000   2.07257
   R20        2.05683   0.00000   0.00000   0.00000   0.00000   2.05683
   R21        2.07387   0.00000   0.00000   0.00000   0.00000   2.07387
   R22        2.06379   0.00000   0.00000   0.00000   0.00000   2.06379
   R23        2.06508   0.00000   0.00000   0.00000   0.00000   2.06508
   R24        2.89162   0.00000   0.00000   0.00000   0.00000   2.89162
   R25        2.08601   0.00000   0.00000   0.00000   0.00000   2.08601
   R26        2.08117   0.00000   0.00000   0.00000   0.00000   2.08117
   R27        2.66862   0.00000   0.00000   0.00000   0.00000   2.66862
   R28        2.66850   0.00000   0.00000   0.00000   0.00000   2.66850
   R29        2.06414   0.00000   0.00000   0.00000   0.00000   2.06414
   R30        2.08083   0.00000   0.00000   0.00000   0.00000   2.08083
   R31        2.08170   0.00000   0.00000   0.00000   0.00000   2.08170
    A1        1.87207   0.00000   0.00000   0.00000   0.00000   1.87207
    A2        1.97968   0.00000   0.00000  -0.00001  -0.00001   1.97968
    A3        1.92687   0.00000   0.00000   0.00000   0.00000   1.92687
    A4        1.91386   0.00000   0.00000   0.00000   0.00000   1.91386
    A5        1.88874   0.00000   0.00000   0.00000   0.00000   1.88874
    A6        1.88094   0.00000   0.00000   0.00000   0.00000   1.88094
    A7        2.10738   0.00000   0.00000   0.00001   0.00001   2.10739
    A8        2.05675   0.00000   0.00000   0.00000   0.00000   2.05675
    A9        2.11889   0.00000   0.00000   0.00000   0.00000   2.11888
   A10        2.01760  -0.00027   0.00000   0.00000   0.00000   2.01760
   A11        2.13373   0.00087   0.00000   0.00001   0.00001   2.13374
   A12        2.04637  -0.00016   0.00000   0.00000   0.00000   2.04637
   A13        1.97458   0.00009   0.00000   0.00000   0.00000   1.97458
   A14        1.92131   0.00014   0.00000   0.00000   0.00000   1.92131
   A15        1.87756  -0.00011   0.00000   0.00000   0.00000   1.87756
   A16        1.82931   0.00155   0.00000   0.00000   0.00000   1.82931
   A17        1.97836  -0.00157   0.00000   0.00000   0.00000   1.97836
   A18        1.88039  -0.00005   0.00000   0.00000   0.00000   1.88039
   A19        2.08858   0.00000   0.00000   0.00000   0.00000   2.08858
   A20        2.05697   0.00000   0.00000   0.00000   0.00000   2.05697
   A21        2.13763   0.00000   0.00000   0.00000   0.00000   2.13763
   A22        2.18255   0.00000   0.00000   0.00000   0.00000   2.18255
   A23        2.07569   0.00000   0.00000   0.00001   0.00001   2.07570
   A24        2.02111   0.00000   0.00000  -0.00001  -0.00001   2.02111
   A25        1.94533   0.00000   0.00000   0.00000   0.00000   1.94533
   A26        1.90970   0.00000   0.00000   0.00000   0.00000   1.90971
   A27        1.94302   0.00000   0.00000   0.00000   0.00000   1.94302
   A28        1.88099   0.00000   0.00000   0.00000   0.00000   1.88099
   A29        1.90120   0.00000   0.00000   0.00000   0.00000   1.90120
   A30        1.88146   0.00000   0.00000   0.00000   0.00000   1.88146
   A31        1.92770   0.00000   0.00000   0.00001   0.00001   1.92771
   A32        1.89175   0.00000   0.00000  -0.00001  -0.00001   1.89175
   A33        1.93021   0.00000   0.00000   0.00000   0.00000   1.93020
   A34        1.91458   0.00000   0.00000   0.00000   0.00000   1.91458
   A35        1.88898   0.00000   0.00000   0.00000   0.00000   1.88898
   A36        1.91065   0.00000   0.00000   0.00000   0.00000   1.91065
   A37        1.93192   0.00000   0.00000   0.00000   0.00000   1.93192
   A38        1.89531   0.00000   0.00000   0.00000   0.00000   1.89530
   A39        1.96918   0.00000   0.00000   0.00000   0.00000   1.96918
   A40        1.86856   0.00000   0.00000   0.00000   0.00000   1.86856
   A41        1.89583   0.00000   0.00000   0.00001   0.00001   1.89584
   A42        1.90016   0.00000   0.00000   0.00000   0.00000   1.90016
   A43        1.92612   0.00000   0.00000   0.00000   0.00000   1.92612
   A44        1.92347   0.00000   0.00000   0.00000   0.00000   1.92347
   A45        1.86892   0.00000   0.00000   0.00000   0.00000   1.86892
   A46        1.86997   0.00000   0.00000   0.00001   0.00001   1.86998
   A47        1.93622   0.00000   0.00000   0.00000   0.00000   1.93621
   A48        1.93990   0.00000   0.00000  -0.00001  -0.00001   1.93989
   A49        1.97302   0.00000   0.00000   0.00000   0.00000   1.97301
   A50        1.87245   0.00000   0.00000   0.00000   0.00000   1.87245
   A51        1.95051   0.00000   0.00000   0.00000   0.00000   1.95051
   A52        1.95168   0.00000   0.00000   0.00000   0.00000   1.95168
   A53        1.89976   0.00000   0.00000   0.00000   0.00000   1.89976
   A54        1.89938   0.00000   0.00000   0.00000   0.00000   1.89938
   A55        1.88897   0.00000   0.00000   0.00000   0.00000   1.88897
    D1       -0.27037   0.00000   0.00000   0.00001   0.00001  -0.27035
    D2        2.85178   0.00000   0.00000   0.00004   0.00004   2.85182
    D3       -2.38629   0.00000   0.00000   0.00002   0.00002  -2.38628
    D4        0.73586   0.00000   0.00000   0.00004   0.00004   0.73590
    D5        1.78388   0.00000   0.00000   0.00002   0.00002   1.78390
    D6       -1.37716   0.00000   0.00000   0.00004   0.00004  -1.37711
    D7        2.94624   0.00051   0.00000   0.00001   0.00001   2.94626
    D8        0.24952  -0.00051   0.00000  -0.00001  -0.00001   0.24952
    D9       -0.21493   0.00051   0.00000   0.00004   0.00004  -0.21489
   D10       -2.91165  -0.00051   0.00000   0.00002   0.00002  -2.91163
   D11        2.76931  -0.00355   0.00000   0.00000   0.00000   2.76931
   D12       -1.47383  -0.00145   0.00000   0.00000   0.00000  -1.47383
   D13        0.57057  -0.00150   0.00000   0.00000   0.00000   0.57057
   D14       -0.79404  -0.00231   0.00000   0.00002   0.00002  -0.79402
   D15        1.24600  -0.00021   0.00000   0.00002   0.00002   1.24602
   D16       -2.99278  -0.00025   0.00000   0.00002   0.00002  -2.99276
   D17        0.37242   0.00051   0.00000   0.00001   0.00001   0.37243
   D18        2.41888   0.00051   0.00000   0.00001   0.00001   2.41890
   D19       -1.75619   0.00051   0.00000   0.00001   0.00001  -1.75618
   D20       -2.31743  -0.00051   0.00000  -0.00001  -0.00001  -2.31743
   D21       -0.27096  -0.00051   0.00000  -0.00001  -0.00001  -0.27097
   D22        1.83715  -0.00051   0.00000  -0.00001  -0.00001   1.83714
   D23        1.75273   0.00085   0.00000   0.00000   0.00000   1.75273
   D24       -1.38634   0.00085   0.00000   0.00000   0.00000  -1.38634
   D25       -0.34077  -0.00038   0.00000   0.00000   0.00000  -0.34077
   D26        2.80333  -0.00038   0.00000   0.00000   0.00000   2.80334
   D27       -2.38667  -0.00047   0.00000   0.00000   0.00000  -2.38667
   D28        0.75744  -0.00047   0.00000   0.00000   0.00000   0.75743
   D29       -0.03496   0.00000   0.00000  -0.00001  -0.00001  -0.03497
   D30       -3.07846   0.00000   0.00000  -0.00001  -0.00001  -3.07847
   D31        3.10923   0.00000   0.00000  -0.00001  -0.00001   3.10922
   D32        0.06572   0.00000   0.00000   0.00000   0.00000   0.06572
   D33        0.29085   0.00000   0.00000  -0.00002  -0.00002   0.29083
   D34        2.36952   0.00000   0.00000  -0.00001  -0.00001   2.36951
   D35       -1.83584   0.00000   0.00000  -0.00001  -0.00001  -1.83585
   D36       -2.94609   0.00000   0.00000  -0.00002  -0.00002  -2.94611
   D37       -0.86741   0.00000   0.00000  -0.00002  -0.00002  -0.86743
   D38        1.21041   0.00000   0.00000  -0.00001  -0.00001   1.21040
   D39       -2.17432   0.00000   0.00000   0.00000   0.00000  -2.17431
   D40       -0.07640   0.00000   0.00000   0.00000   0.00000  -0.07640
   D41        2.01820   0.00000   0.00000   0.00000   0.00000   2.01820
   D42        1.05644   0.00000   0.00000   0.00001   0.00001   1.05645
   D43       -3.12883   0.00000   0.00000   0.00001   0.00001  -3.12882
   D44       -1.03423   0.00000   0.00000   0.00000   0.00000  -1.03423
   D45        0.96754   0.00000   0.00000  -0.00001  -0.00001   0.96753
   D46       -1.09432   0.00000   0.00000  -0.00002  -0.00002  -1.09434
   D47        3.07673   0.00000   0.00000  -0.00001  -0.00001   3.07672
   D48       -1.18128   0.00000   0.00000  -0.00001  -0.00001  -1.18129
   D49        3.04005   0.00000   0.00000  -0.00002  -0.00002   3.04003
   D50        0.92792   0.00000   0.00000  -0.00001  -0.00001   0.92791
   D51        3.07288   0.00000   0.00000  -0.00001  -0.00001   3.07287
   D52        1.01102   0.00000   0.00000  -0.00002  -0.00002   1.01100
   D53       -1.10111   0.00000   0.00000  -0.00002  -0.00002  -1.10113
   D54        3.09111   0.00000   0.00000   0.00000   0.00000   3.09111
   D55       -1.08929   0.00000   0.00000   0.00000   0.00000  -1.08929
   D56        0.98942   0.00000   0.00000   0.00000   0.00000   0.98942
   D57       -3.13678   0.00000   0.00000   0.00001   0.00001  -3.13677
   D58       -1.05567   0.00000   0.00000   0.00001   0.00001  -1.05566
   D59        1.06507   0.00000   0.00000   0.00001   0.00001   1.06508
         Item               Value     Threshold  Converged?
 Maximum Force            0.000002     0.000450     YES
 RMS     Force            0.000001     0.000300     YES
 Maximum Displacement     0.000076     0.001800     YES
 RMS     Displacement     0.000022     0.001200     YES
 Predicted change in Energy=-1.353598D-10
 Optimization completed.
    -- Stationary point found.
                           ----------------------------
                           !   Optimized Parameters   !
                           ! (Angstroms and Degrees)  !
 --------------------------                            --------------------------
 ! Name  Definition              Value          Derivative Info.                !
 --------------------------------------------------------------------------------
 ! R1    R(1,2)                  1.5216         -DE/DX =    0.0                 !
 ! R2    R(1,11)                 1.0897         -DE/DX =    0.0                 !
 ! R3    R(1,12)                 1.0926         -DE/DX =    0.0                 !
 ! R4    R(1,13)                 1.0958         -DE/DX =    0.0                 !
 ! R5    R(2,3)                  1.2265         -DE/DX =    0.0                 !
 ! R6    R(2,4)                  1.3855         -DE/DX =    0.0                 !
 ! R7    R(4,5)                  1.4721         -DE/DX =    0.0                 !
 ! R8    R(4,22)                 1.47           -DE/DX =    0.0                 !
 ! R9    R(5,6)                  1.5323         -DE/DX =    0.0                 !
 ! R10   R(5,14)                 1.0958         -DE/DX =    0.0                 !
 ! R11   R(5,15)                 1.0891         -DE/DX =    0.0                 !
 ! R12   R(6,7)                  1.2292         -DE/DX =    0.0                 !
 ! R13   R(6,8)                  1.3727         -DE/DX =    0.0                 !
 ! R14   R(8,9)                  1.4559         -DE/DX =    0.0                 !
 ! R15   R(8,10)                 1.4567         -DE/DX =    0.0                 !
 ! R16   R(9,16)                 1.0878         -DE/DX =    0.0                 !
 ! R17   R(9,17)                 1.0961         -DE/DX =    0.0                 !
 ! R18   R(9,18)                 1.0985         -DE/DX =    0.0                 !
 ! R19   R(10,19)                1.0968         -DE/DX =    0.0                 !
 ! R20   R(10,20)                1.0884         -DE/DX =    0.0                 !
 ! R21   R(10,21)                1.0974         -DE/DX =    0.0                 !
 ! R22   R(22,23)                1.0921         -DE/DX =    0.0                 !
 ! R23   R(22,24)                1.0928         -DE/DX =    0.0                 !
 ! R24   R(22,25)                1.5302         -DE/DX =    0.0                 !
 ! R25   R(25,26)                1.1039         -DE/DX =    0.0                 !
 ! R26   R(25,27)                1.1013         -DE/DX =    0.0                 !
 ! R27   R(25,28)                1.4122         -DE/DX =    0.0                 !
 ! R28   R(28,29)                1.4121         -DE/DX =    0.0                 !
 ! R29   R(29,30)                1.0923         -DE/DX =    0.0                 !
 ! R30   R(29,31)                1.1011         -DE/DX =    0.0                 !
 ! R31   R(29,32)                1.1016         -DE/DX =    0.0                 !
 ! A1    A(2,1,11)             107.2616         -DE/DX =    0.0                 !
 ! A2    A(2,1,12)             113.4275         -DE/DX =    0.0                 !
 ! A3    A(2,1,13)             110.4016         -DE/DX =    0.0                 !
 ! A4    A(11,1,12)            109.6563         -DE/DX =    0.0                 !
 ! A5    A(11,1,13)            108.2168         -DE/DX =    0.0                 !
 ! A6    A(12,1,13)            107.77           -DE/DX =    0.0                 !
 ! A7    A(1,2,3)              120.7442         -DE/DX =    0.0                 !
 ! A8    A(1,2,4)              117.8429         -DE/DX =    0.0                 !
 ! A9    A(3,2,4)              121.4032         -DE/DX =    0.0                 !
 ! A10   A(2,4,5)              115.6            -DE/DX =   -0.0003              !
 ! A11   A(2,4,22)             122.2537         -DE/DX =    0.0009              !
 ! A12   A(5,4,22)             117.2484         -DE/DX =   -0.0002              !
 ! A13   A(4,5,6)              113.1352         -DE/DX =    0.0001              !
 ! A14   A(4,5,14)             110.0831         -DE/DX =    0.0001              !
 ! A15   A(4,5,15)             107.5762         -DE/DX =   -0.0001              !
 ! A16   A(6,5,14)             104.8119         -DE/DX =    0.0016              !
[...]
 ! D46   D(4,22,25,27)         -72.4853         -DE/DX =    0.0                 !
 ! D47   D(4,22,25,28)         167.2949         -DE/DX =    0.0                 !
 ! D48   D(23,22,25,26)        -77.1435         -DE/DX =    0.0                 !
 ! D49   D(23,22,25,27)        163.7336         -DE/DX =    0.0                 !
 ! D50   D(23,22,25,28)         43.5138         -DE/DX =    0.0                 !
 ! D51   D(24,22,25,26)        168.1621         -DE/DX =    0.0                 !
 ! D52   D(24,22,25,27)         49.0392         -DE/DX =    0.0                 !
 ! D53   D(24,22,25,28)        -71.1806         -DE/DX =    0.0                 !
 ! D54   D(22,25,28,29)        175.7038         -DE/DX =    0.0                 !
 ! D55   D(26,25,28,29)        -63.7298         -DE/DX =    0.0                 !
 ! D56   D(27,25,28,29)         55.6932         -DE/DX =    0.0                 !
 ! D57   D(25,28,29,30)       -179.921          -DE/DX =    0.0                 !
 ! D58   D(25,28,29,31)        -60.6396         -DE/DX =    0.0                 !
 ! D59   D(25,28,29,32)         60.8513         -DE/DX =    0.0                 !
 --------------------------------------------------------------------------------
 Iteration  1 RMS(Cart)=  0.04215664 RMS(Int)=  0.01111107
 Iteration  2 RMS(Cart)=  0.00115768 RMS(Int)=  0.01109866
 Iteration  3 RMS(Cart)=  0.00000575 RMS(Int)=  0.01109866
 Iteration  4 RMS(Cart)=  0.00000024 RMS(Int)=  0.01109866
 Iteration  1 RMS(Cart)=  0.02632676 RMS(Int)=  0.00681991
 Iteration  2 RMS(Cart)=  0.01728827 RMS(Int)=  0.00753457
 Iteration  3 RMS(Cart)=  0.01167684 RMS(Int)=  0.00860195
 Iteration  4 RMS(Cart)=  0.00800992 RMS(Int)=  0.00947911
 Iteration  5 RMS(Cart)=  0.00553918 RMS(Int)=  0.01012615
 Iteration  6 RMS(Cart)=  0.00384635 RMS(Int)=  0.01058857
 Iteration  7 RMS(Cart)=  0.00267639 RMS(Int)=  0.01091515
 Iteration  8 RMS(Cart)=  0.00186424 RMS(Int)=  0.01114457
 Iteration  9 RMS(Cart)=  0.00129922 RMS(Int)=  0.01130529
 Iteration 10 RMS(Cart)=  0.00090568 RMS(Int)=  0.01141770
 Iteration 11 RMS(Cart)=  0.00063144 RMS(Int)=  0.01149623
 Iteration 12 RMS(Cart)=  0.00044027 RMS(Int)=  0.01155107
 Iteration 13 RMS(Cart)=  0.00030699 RMS(Int)=  0.01158935
 Iteration 14 RMS(Cart)=  0.00021406 RMS(Int)=  0.01161606
 Iteration 15 RMS(Cart)=  0.00014927 RMS(Int)=  0.01163469
 Iteration 16 RMS(Cart)=  0.00010408 RMS(Int)=  0.01164768
 Iteration 17 RMS(Cart)=  0.00007258 RMS(Int)=  0.01165675
 Iteration 18 RMS(Cart)=  0.00005061 RMS(Int)=  0.01166307
 Iteration 19 RMS(Cart)=  0.00003529 RMS(Int)=  0.01166748
 Iteration 20 RMS(Cart)=  0.00002461 RMS(Int)=  0.01167055
 Iteration 21 RMS(Cart)=  0.00001716 RMS(Int)=  0.01167269
 Iteration 22 RMS(Cart)=  0.00001197 RMS(Int)=  0.01167419
 Iteration 23 RMS(Cart)=  0.00000834 RMS(Int)=  0.01167523
 Iteration 24 RMS(Cart)=  0.00000582 RMS(Int)=  0.01167596
 Iteration 25 RMS(Cart)=  0.00000406 RMS(Int)=  0.01167647
 Iteration 26 RMS(Cart)=  0.00000283 RMS(Int)=  0.01167682
 Iteration 27 RMS(Cart)=  0.00000197 RMS(Int)=  0.01167707
 Iteration 28 RMS(Cart)=  0.00000138 RMS(Int)=  0.01167724
 Iteration 29 RMS(Cart)=  0.00000096 RMS(Int)=  0.01167736
 GradGradGradGradGradGradGradGradGradGradGradGradGradGradGradGradGradGrad

                          Input orientation:                          
 ---------------------------------------------------------------------
 Center     Atomic      Atomic             Coordinates (Angstroms)
 Number     Number       Type             X           Y           Z
 ---------------------------------------------------------------------
      1          6           0        3.017938    1.403648   -0.299736
      2          6           0        1.644872    1.963744    0.038746
      3          8           0        1.470156    3.172235    0.111566
      4          7           0        0.593124    1.058179    0.220915
      5          6           0       -0.585731    1.633070    0.887491
      6          6           0       -1.948826    0.950286    0.718947
      7          8           0       -2.804014    1.184983    1.563956
      8          7           0       -2.116532   -0.074820   -0.200293
      9          6           0       -1.616231    0.080163   -1.570876
     10          6           0       -3.394985   -0.781392   -0.121447
     11          1           0        3.574586    2.195578   -0.800929
     12          1           0        2.989240    0.514515   -0.932434
     13          1           0        3.555982    1.144527    0.619324
     14          1           0       -0.492048    1.743422    1.974487
     15          1           0       -0.628592    2.646937    0.481305
     16          1           0       -0.673447    0.623960   -1.572428
     17          1           0       -1.449550   -0.905697   -2.017871
     18          1           0       -2.342644    0.619209   -2.196925
     19          1           0       -3.297176   -1.737005   -0.645791
     20          1           0       -3.648407   -0.956178    0.923835
     21          1           0       -4.212851   -0.207570   -0.579461
     22          6           0        0.943455   -0.319479    0.635952
     23          1           0        1.944555   -0.349098    1.074338
     24          1           0        0.252916   -0.626328    1.425044
     25          6           0        0.901412   -1.361430   -0.483669
     26          1           0        1.417869   -0.989044   -1.384524
     27          1           0       -0.137713   -1.581636   -0.763323
     28          8           0        1.539524   -2.517794    0.022809
     29          6           0        1.494150   -3.609996   -0.871719
     30          1           0        2.008101   -4.445028   -0.390365
     31          1           0        0.459257   -3.911166   -1.097249
     32          1           0        2.000877   -3.381445   -1.822599
 ---------------------------------------------------------------------
                    Distance matrix (angstroms):
                    1          2          3          4          5
     1  C    0.000000
     2  C    1.521048   0.000000
     3  O    2.385937   1.223225   0.000000
     4  N    2.504027   1.399789   2.291370   0.000000
     5  C    3.801128   2.409420   2.682865   1.471231   0.000000
     6  C    5.090383   3.795318   4.122549   2.592525   1.533828
     7  O    6.116885   4.767108   4.932255   3.655185   2.362025
     8  N    5.344019   4.284979   4.848192   2.967042   2.538408
     9  C    4.984268   4.095552   4.681592   3.008035   3.084966
    10  C    6.777297   5.741218   6.273361   4.405251   3.839203
    11  H    1.090048   2.117214   2.493016   3.350665   4.524977
    12  H    1.091645   2.202450   3.234352   2.714251   4.164579
    13  H    1.096041   2.158826   2.952979   2.990771   4.179040
    14  H    4.196134   2.891723   3.059777   2.173056   1.096592
    15  H    3.931026   2.414797   2.194855   2.021026   1.093047
    16  H    3.981706   3.124981   3.731565   2.238041   2.660300
    17  H    5.314462   4.694551   5.448736   3.611300   3.953814
    18  H    5.740254   4.765111   5.136587   3.828496   3.691650
    19  H    7.061454   6.211923   6.884889   4.868128   4.589150
    20  H    7.176772   6.109675   6.625954   4.747875   4.010674
    21  H    7.413405   6.277715   6.648095   5.033896   4.323875
    22  C    2.854498   2.462062   3.569939   1.480854   2.492815
    23  H    2.472316   2.551764   3.681273   2.129583   3.219666
    24  H    3.839403   3.250821   4.199521   2.098387   2.469244
    25  C    3.487000   3.447091   4.607808   2.538895   3.613683
    26  H    3.076030   3.285755   4.422359   2.729242   4.006488
    27  H    4.368634   4.048536   5.094111   2.910579   3.641461
    28  O    4.203267   4.482805   5.691144   3.704390   4.742790
    29  C    5.271216   5.649624   6.853181   4.878274   5.908508
    30  H    5.935907   6.433384   7.652713   5.714990   6.730836
    31  H    5.952321   6.100061   7.256564   5.142943   5.980781
    32  H    5.123538   5.671190   6.853713   5.086057   6.259432
                    6          7          8          9         10
     6  C    0.000000
     7  O    1.224936   0.000000
     8  N    1.387073   2.274271   0.000000
     9  C    2.472048   3.529677   1.467249   0.000000
    10  C    2.407560   2.656399   1.462840   2.450936   0.000000
    11  H    5.862495   6.877536   6.156646   5.657948   7.609136
    12  H    5.225080   6.343759   5.191557   4.669757   6.564709
    13  H    5.509135   6.429892   5.859692   5.716785   7.250782
    14  H    2.080300   2.413622   3.267204   4.074287   4.381171
    15  H    2.162896   2.835825   3.175926   3.431502   4.446311
    16  H    2.642627   3.832879   2.110342   1.088374   3.389266
    17  H    3.344267   4.362912   2.106849   1.095220   2.719668
    18  H    2.960914   3.831082   2.125874   1.100083   2.716010
    19  H    3.301832   3.696513   2.086923   2.642624   1.094396
    20  H    2.562257   2.389002   2.094539   3.380433   1.089673
    21  H    2.855223   2.918606   2.134465   2.794303   1.099070
    22  C    3.159823   4.143442   3.181617   3.403203   4.428213
    23  H    4.119844   5.014183   4.265248   4.456525   5.488848
    24  H    2.798563   3.555975   2.925776   3.601163   3.965205
    25  C    3.861887   4.940361   3.292970   3.098183   4.350480
    26  H    4.418171   5.589653   3.837995   3.222374   4.980165
    27  H    3.447881   4.492167   2.550141   2.366375   3.414998
    28  O    4.967975   5.912023   4.402799   4.387255   5.233095
    29  C    5.931314   6.884661   5.097579   4.876532   5.698031
    30  H    6.782128   7.659819   6.012274   5.916649   6.533596
    31  H    5.721115   6.610725   4.707098   4.523570   5.059927
    32  H    6.389328   7.443655   5.524373   5.012940   6.226517
                   11         12         13         14         15
    11  H    0.000000
    12  H    1.784908   0.000000
    13  H    1.766967   1.768068   0.000000
    14  H    4.944178   4.698912   4.310649   0.000000
    15  H    4.417527   4.431094   4.448251   1.750594   0.000000
    16  H    4.594668   3.719792   4.791955   3.723803   2.883100
    17  H    6.028332   4.785189   6.017771   4.886058   4.420527
    18  H    6.280713   5.480775   6.557515   4.699919   3.771283
    19  H    7.918990   6.683603   7.541189   5.181503   5.254583
    20  H    8.067218   7.047484   7.510586   4.284193   4.722029
    21  H    8.152811   7.246800   7.976215   4.916644   4.703228
    22  C    3.913181   2.709357   2.994810   2.847438   3.360784
    23  H    3.556544   2.421637   2.243803   3.335557   3.993620
    24  H    4.894037   3.787703   3.833452   2.544125   3.518801
    25  C    4.460809   2.842461   3.813549   4.198138   4.397623
    26  H    3.890222   2.221324   3.624784   4.732559   4.570523
    27  H    5.296218   3.768326   4.794482   4.321709   4.435188
    28  O    5.199605   3.494147   4.223094   5.108257   5.620088
    29  C    6.167488   4.387547   5.392573   6.380044   6.744325
    30  H    6.835209   5.084637   5.887149   7.080973   7.616293
    31  H    6.861880   5.100454   6.172225   6.504991   6.832567
    32  H    5.884179   4.116765   5.372687   6.848124   6.968750
                   16         17         18         19         20
    16  H    0.000000
    17  H    1.772175   0.000000
    18  H    1.782200   1.776236   0.000000
    19  H    3.649215   2.446917   2.978069   0.000000
    20  H    4.192678   3.673031   3.731756   1.787954   0.000000
    21  H    3.768926   3.192528   2.607187   1.783825   1.771697
    22  C    2.895063   3.621174   4.439006   4.651366   4.644724
    23  H    3.847875   4.625095   5.478946   5.688662   5.627825
    24  H    3.377307   3.850987   4.626764   4.257360   3.947193
    25  C    2.758142   2.844027   4.169182   4.218470   4.779764
    26  H    2.647771   2.937715   4.169884   4.830821   5.567473
    27  H    2.409629   1.936930   3.429380   3.165464   3.944955
    28  O    4.160846   3.962044   5.462530   4.944728   5.492278
    29  C    4.807895   4.158397   5.862025   5.149364   6.059097
    30  H    5.855135   5.208741   6.916584   5.961929   6.774605
    31  H    4.698530   3.677490   5.439139   4.363666   5.448820
    32  H    4.822641   4.251224   5.917054   5.670840   6.733441
                   21         22         23         24         25
    21  H    0.000000
    22  C    5.298796   0.000000
    23  H    6.377203   1.093279   0.000000
    24  H    4.912888   1.092550   1.749712   0.000000
    25  C    5.243687   1.530026   2.130809   2.145718   0.000000
    26  H    5.741414   2.180759   2.594789   3.063063   1.103150
    27  H    4.304487   2.172542   3.038418   2.419536   1.098398
    28  O    6.228137   2.358778   2.443973   2.683146   1.414526
    29  C    6.650698   3.661126   3.824063   3.964601   2.357535
    30  H    7.529412   4.382574   4.350406   4.578084   3.277505
    31  H    5.984424   4.017294   4.428343   4.146649   2.659537
    32  H    7.087263   4.066725   4.194108   4.603610   2.661206
                   26         27         28         29         30
    26  H    0.000000
    27  H    1.776765   0.000000
    28  O    2.081457   2.075457   0.000000
    29  C    2.671737   2.605566   1.412496   0.000000
    30  H    3.644249   3.597586   2.025958   1.092303   0.000000
    31  H    3.088732   2.427878   2.088778   1.101168   1.784267
    32  H    2.501078   2.989138   2.089083   1.101444   1.783972
                   31         32
    31  H    0.000000
    32  H    1.784188   0.000000
 Stoichiometry    C9H18N2O3
 Framework group  C1[X(C9H18N2O3)]
 Deg. of freedom    90
 Full point group                 C1      NOp   1
 Largest Abelian subgroup         C1      NOp   1
 Largest concise Abelian subgroup C1      NOp   1
                         Standard orientation:                         
 ---------------------------------------------------------------------
 Center     Atomic      Atomic             Coordinates (Angstroms)
 Number     Number       Type             X           Y           Z
 ---------------------------------------------------------------------
      1          6           0       -2.578812   -2.098963   -0.309716
      2          6           0       -1.069734   -2.262077   -0.211401
      3          8           0       -0.550761   -3.351832   -0.409839
      4          7           0       -0.303477   -1.125035    0.070374
      5          6           0        1.072124   -1.419446    0.501146
      6          6           0        2.147159   -0.333457    0.368652
      7          8           0        3.144558   -0.440326    1.071676
      8          7           0        1.884990    0.839201   -0.324250
      9          6           0        1.260239    0.783134   -1.650660
     10          6           0        2.908069    1.877804   -0.203787
     11          1           0       -2.953007   -2.921687   -0.919067
     12          1           0       -2.893606   -1.146701   -0.740751
     13          1           0       -3.032332   -2.183778    0.684483
     14          1           0        1.168672   -1.743417    1.544331
     15          1           0        1.342924   -2.282912   -0.111918
     16          1           0        0.520254   -0.014046   -1.689171
     17          1           0        0.759029    1.733215   -1.864303
     18          1           0        2.013372    0.612044   -2.434051
     19          1           0        2.469795    2.834356   -0.504828
     20          1           0        3.246962    1.934245    0.830308
     21          1           0        3.781619    1.672509   -0.838388
     22          6           0       -0.967853   -0.017033    0.794157
     23          1           0       -1.863515   -0.373439    1.309933
     24          1           0       -0.288211    0.342099    1.570545
     25          6           0       -1.382378    1.168291   -0.080003
     26          1           0       -1.894173    0.820928   -0.993429
     27          1           0       -0.499055    1.741983   -0.391602
     28          8           0       -2.243910    1.964989    0.709883
     29          6           0       -2.637631    3.158568    0.065291
     30          1           0       -3.293783    3.697167    0.752678
     31          1           0       -1.773626    3.797134   -0.176159
     32          1           0       -3.188107    2.957566   -0.867315
 ---------------------------------------------------------------------
 Rotational constants (GHZ):      0.6463706      0.5641993      0.3432501
 Standard basis: 6-31G(d,p) (6D, 7F)
 There are   300 symmetry adapted basis functions of A   symmetry.
 Integral buffers will be    131072 words long.
 Raffenetti 2 integral format.
 Two-electron integral symmetry is turned on.
   300 basis functions,   518 primitive gaussians,   300 cartesian basis functions
    55 alpha electrons       55 beta electrons
       nuclear repulsion energy       986.8074177608 Hartrees.
 NAtoms=   32 NActive=   32 NUniq=   32 SFac= 1.00D+00 NAtFMM=   60 NAOKFM=F Big=F
 One-electron integrals computed using PRISM.
 NBasis=   300 RedAO= T  NBF=   300
 NBsUse=   300 1.00D-06 NBFU=   300
 Initial guess read from the read-write file.
 B after Tr=     0.000000    0.000000    0.000000
         Rot=    1.000000    0.000000    0.000000    0.000000 Ang=   0.00 deg.
 Initial guess orbital symmetries:
       Occupied  (A) (A) (A) (A) (A) (A) (A) (A) (A) (A) (A) (A)
                 (A) (A) (A) (A) (A) (A) (A) (A) (A) (A) (A) (A)
                 (A) (A) (A) (A) (A) (A) (A) (A) (A) (A) (A) (A)
                 (A) (A) (A) (A) (A) (A) (A) (A) (A) (A) (A) (A)
                 (A) (A) (A) (A) (A) (A) (A)
       Virtual   (A) (A) (A) (A) (A) (A) (A) (A) (A) (A) (A) (A)
                 (A) (A) (A) (A) (A) (A) (A) (A) (A) (A) (A) (A)
                 (A) (A) (A) (A) (A) (A) (A) (A) (A) (A) (A) (A)
                 (A) (A) (A) (A) (A) (A) (A) (A) (A) (A) (A) (A)
                 (A) (A) (A) (A) (A) (A) (A) (A) (A) (A) (A) (A)
                 (A) (A) (A) (A) (A) (A) (A) (A) (A) (A) (A) (A)
                 (A) (A) (A) (A) (A) (A) (A) (A) (A) (A) (A) (A)
                 (A) (A) (A) (A) (A) (A) (A) (A) (A) (A) (A) (A)
                 (A) (A) (A) (A) (A) (A) (A) (A) (A) (A) (A) (A)
                 (A) (A) (A) (A) (A) (A) (A) (A) (A) (A) (A) (A)
                 (A) (A) (A) (A) (A) (A) (A) (A) (A) (A) (A) (A)
                 (A) (A) (A) (A) (A) (A) (A) (A) (A) (A) (A) (A)
                 (A) (A) (A) (A) (A) (A) (A) (A) (A) (A) (A) (A)
                 (A) (A) (A) (A) (A) (A) (A) (A) (A) (A) (A) (A)
                 (A) (A) (A) (A) (A) (A) (A) (A) (A) (A) (A) (A)
                 (A) (A) (A) (A) (A) (A) (A) (A) (A) (A) (A) (A)
                 (A) (A) (A) (A) (A) (A) (A) (A) (A) (A) (A) (A)
                 (A) (A) (A) (A) (A) (A) (A) (A) (A) (A) (A) (A)
                 (A) (A) (A) (A) (A) (A) (A) (A) (A) (A) (A) (A)
                 (A) (A) (A) (A) (A) (A) (A) (A) (A) (A) (A) (A)
                 (A) (A) (A) (A) (A)
 Harris functional with IExCor=  402 diagonalized for initial guess.
 ExpMin= 1.61D-01 ExpMax= 5.48D+03 ExpMxC= 8.25D+02 IAcc=1 IRadAn=         1 AccDes= 0.00D+00
 HarFok:  IExCor=  402 AccDes= 0.00D+00 IRadAn=         1 IDoV= 1
 ScaDFX=  1.000000  1.000000  1.000000  1.000000
 FoFCou: FMM=F IPFlag=           0 FMFlag=      100000 FMFlg1=           0
         NFxFlg=           0 DoJE=T BraDBF=F KetDBF=T FulRan=T
         Omega=  0.000000  0.000000  1.000000  0.000000  0.000000 ICntrl=     500 IOpCl=  0
         NMat0=    1 NMatS0=    1 NMatT0=    0 NMatD0=    1 NMtDS0=    0 NMtDT0=    0
         I1Cent=           4 NGrid=           0.
 Petite list used in FoFCou.
 Requested convergence on RMS density matrix=1.00D-08 within 128 cycles.
 Requested convergence on MAX density matrix=1.00D-06.
 Requested convergence on             energy=1.00D-06.
 No special actions if energy rises.
 Keep R1 ints in memory in canonical form, NReq=1033482975.
