 Entering Gaussian System, Link 0=/data/opt/apps/g09-C01/g09
 Initial command:
 /data/opt/apps/g09-C01/l1.exe /tmp/g09-tuu61186-1150921c21e64fea8x/Gau-1151052.inp -scrdir=/tmp/g09-tuu61186-1150921c21e64fea8x/
 Entering Link 1 = /data/opt/apps/g09-C01/l1.exe PID=   1151060.
  
 Copyright (c) 1988,1990,1992,1993,1995,1998,2003,2009,2011,
            Gaussian, Inc.  All Rights Reserved.
  
 This is part of the Gaussian(R) 09 program.  It is based on
 the Gaussian(R) 03 system (copyright 2003, Gaussian, Inc.),
 the Gaussian(R) 98 system (copyright 1998, Gaussian, Inc.),
 the Gaussian(R) 94 system (copyright 1995, Gaussian, Inc.),
 the Gaussian 92(TM) system (copyright 1992, Gaussian, Inc.),
 the Gaussian 90(TM) system (copyright 1990, Gaussian, Inc.),
 the Gaussian 88(TM) system (copyright 1988, Gaussian, Inc.),
 the Gaussian 86(TM) system (copyright 1986, Carnegie Mellon
 University), and the Gaussian 82(TM) system (copyright 1983,
 Carnegie Mellon University). Gaussian is a federally registered
 trademark of Gaussian, Inc.
  
 This software contains proprietary and confidential information,
 including trade secrets, belonging to Gaussian, Inc.
  
 This software is provided under written license and may be
 used, copied, transmitted, or stored only in accord with that
 written license.
  
 The following legend is applicable only to US Government
 contracts under FAR:
  
                    RESTRICTED RIGHTS LEGEND
  
 Use, reproduction and disclosure by the US Government is
 subject to restrictions as set forth in subparagraphs (a)
 and (c) of the Commercial Computer Software - Restricted
 Rights clause in FAR 52.227-19.
  
 Gaussian, Inc.
 340 Quinnipiac St., Bldg. 40, Wallingford CT 06492
  
  
 ---------------------------------------------------------------
 Warning -- This program may not be used in any manner that
 competes with the business of Gaussian, Inc. or will provide
 assistance to any competitor of Gaussian, Inc.  The licensee
 of this program is prohibited from giving any competitor of
 Gaussian, Inc. access to this program.  By using this program,
 the user acknowledges that Gaussian, Inc. is engaged in the
 business of creating and licensing software in the field of
 computational chemistry and represents and warrants to the
 licensee that it is not a competitor of Gaussian, Inc. and that
 it will not use this program in any manner prohibited above.
 ---------------------------------------------------------------
  

 Cite this work as:
 Gaussian 09, Revision C.01,
 M. J. Frisch, G. W. Trucks, H. B. Schlegel, G. E. Scuseria, 
 M. A. Robb, J. R. Cheeseman, G. Scalmani, V. Barone, B. Mennucci, 
 G. A. Petersson, H. Nakatsuji, M. Caricato, X. Li, H. P. Hratchian, 
 A. F. Izmaylov, J. Bloino, G. Zheng, J. L. Sonnenberg, M. Hada, 
 M. Ehara, K. Toyota, R. Fukuda, J. Hasegawa, M. Ishida, T. Nakajima, 
 Y. Honda, O. Kitao, H. Nakai, T. Vreven, J. A. Montgomery, Jr., 
 J. E. Peralta, F. Ogliaro, M. Bearpark, J. J. Heyd, E. Brothers, 
 K. N. Kudin, V. N. Staroverov, T. Keith, R. Kobayashi, J. Normand, 
 K. Raghavachari, A. Rendell, J. C. Burant, S. S. Iyengar, J. Tomasi, 
 M. Cossi, N. Rega, J. M. Millam, M. Klene, J. E. Knox, J. B. Cross, 
 V. Bakken, C. Adamo, J. Jaramillo, R. Gomperts, R. E. Stratmann, 
 O. Yazyev, A. J. Austin, R. Cammi, C. Pomelli, J. W. Ochterski, 
 R. L. Martin, K. Morokuma, V. G. Zakrzewski, G. A. Voth, 
 P. Salvador, J. J. Dannenberg, S. Dapprich, A. D. Daniels, 
 O. Farkas, J. B. Foresman, J. V. Ortiz, J. Cioslowski, 
 and D. J. Fox, Gaussian, Inc., Wallingford CT, 2010.
 
 ******************************************
 Gaussian 09:  EM64L-G09RevC.01 23-Sep-2011
                24-Apr-2026 
 ******************************************
 %nprocshared=8
 Will use up to    8 processors via shared memory.
 %mem=14GB
 -----------------------------------
 # opt=modredundant b3lyp/6-31g(d,p)
 -----------------------------------
 1/14=-1,18=120,19=15,26=3,38=1/1,3;
 2/9=110,12=2,17=6,18=5,40=1/2;
 3/5=1,6=6,7=101,11=2,16=1,25=1,30=1,71=1,74=-5/1,2,3;
 4//1;
 5/5=2,38=5/2;
 6/7=2,8=2,9=2,10=2,28=1/1;
 7//1,2,3,16;
 1/14=-1,18=20,19=15/3(2);
 2/9=110/2;
 99//99;
 2/9=110/2;
 3/5=1,6=6,7=101,11=2,16=1,25=1,30=1,71=1,74=-5/1,2,3;
 4/5=5,16=3/1;
 5/5=2,38=5/2;
 7//1,2,3,16;
 1/14=-1,18=20,19=15/3(-5);
 2/9=110/2;
 6/7=2,8=2,9=2,10=2,19=2,28=1/1;
 99/9=1/99;
 ---------------
 QM dihedral opt
 ---------------
 Charge =  0 Multiplicity = 1
 Symbolic Z-Matrix:
 C                     1.25894   2.88128  -0.6767 
 C                     0.03646   2.16441  -0.1236 
 O                    -1.08974   2.62918  -0.30252 
 N                     0.24033   1.00746   0.59308 
 C                    -0.92203   0.3915    1.24177 
 C                    -1.37514  -0.91886   0.57212 
 O                    -0.71494  -1.94009   0.77969 
 N                    -2.49428  -0.91613  -0.21065 
 C                    -3.31016   0.24958  -0.53925 
 C                    -2.96673  -2.18518  -0.75173 
 H                     0.89918   3.68828  -1.31378 
 H                     1.91063   2.22259  -1.25657 
 H                     1.85818   3.31315   0.1323 
 H                    -0.63339   0.09852   2.25554 
 H                    -1.70157   1.1472    1.30082 
 H                    -2.75      1.17696  -0.42384 
 H                    -3.61512   0.1769   -1.58873 
 H                    -4.2224    0.28329   0.07202 
 H                    -2.95368  -2.1631   -1.84823 
 H                    -2.31408  -2.97996  -0.39616 
 H                    -3.99608  -2.37619  -0.42463 
 C                     1.56693   0.43624   0.84218 
 H                     2.30984   1.23452   0.91089 
 H                     1.54508  -0.06584   1.8126 
 C                     2.03067  -0.56856  -0.21658 
 H                     1.95019  -0.12711  -1.22554 
 H                     1.39475  -1.46212  -0.18543 
 O                     3.37815  -0.87798   0.09033 
 C                     3.90341  -1.90772  -0.7212 
 H                     4.93374  -2.07987  -0.40073 
 H                     3.33421  -2.84331  -0.61278 
 H                     3.90619  -1.62815  -1.78688 
 
 The following ModRedundant input section has been read:
 D       2       4       5       6 F                                           
 D       4       5       6       8 S  36 10.000                                

 GradGradGradGradGradGradGradGradGradGradGradGradGradGradGradGradGradGrad
 Berny optimization.
 Initialization pass.
                           ----------------------------
                           !    Initial Parameters    !
                           ! (Angstroms and Degrees)  !
 --------------------------                            --------------------------
 ! Name  Definition              Value          Derivative Info.                !
 --------------------------------------------------------------------------------
 ! R1    R(1,2)                  1.5213         estimate D2E/DX2                !
 ! R2    R(1,11)                 1.0893         estimate D2E/DX2                !
 ! R3    R(1,12)                 1.0931         estimate D2E/DX2                !
 ! R4    R(1,13)                 1.0955         estimate D2E/DX2                !
 ! R5    R(2,3)                  1.2314         estimate D2E/DX2                !
 ! R6    R(2,4)                  1.3761         estimate D2E/DX2                !
 ! R7    R(4,5)                  1.4667         estimate D2E/DX2                !
 ! R8    R(4,22)                 1.4657         estimate D2E/DX2                !
 ! R9    R(5,6)                  1.5397         estimate D2E/DX2                !
 ! R10   R(5,14)                 1.094          estimate D2E/DX2                !
 ! R11   R(5,15)                 1.0873         estimate D2E/DX2                !
 ! R12   R(6,7)                  1.2336         estimate D2E/DX2                !
 ! R13   R(6,8)                  1.3657         estimate D2E/DX2                !
 ! R14   R(8,9)                  1.4603         estimate D2E/DX2                !
 ! R15   R(8,10)                 1.4582         estimate D2E/DX2                !
 ! R16   R(9,16)                 1.0896         estimate D2E/DX2                !
 ! R17   R(9,17)                 1.0953         estimate D2E/DX2                !
 ! R18   R(9,18)                 1.0986         estimate D2E/DX2                !
 ! R19   R(10,19)                1.0968         estimate D2E/DX2                !
 ! R20   R(10,20)                1.0881         estimate D2E/DX2                !
 ! R21   R(10,21)                1.0968         estimate D2E/DX2                !
 ! R22   R(22,23)                1.0927         estimate D2E/DX2                !
 ! R23   R(22,24)                1.0928         estimate D2E/DX2                !
 ! R24   R(22,25)                1.5315         estimate D2E/DX2                !
 ! R25   R(25,26)                1.1042         estimate D2E/DX2                !
 ! R26   R(25,27)                1.0972         estimate D2E/DX2                !
 ! R27   R(25,28)                1.4162         estimate D2E/DX2                !
 ! R28   R(28,29)                1.4124         estimate D2E/DX2                !
 ! R29   R(29,30)                1.0927         estimate D2E/DX2                !
 ! R30   R(29,31)                1.1005         estimate D2E/DX2                !
 ! R31   R(29,32)                1.1017         estimate D2E/DX2                !
 ! A1    A(2,1,11)             107.2382         estimate D2E/DX2                !
 ! A2    A(2,1,12)             112.8304         estimate D2E/DX2                !
 ! A3    A(2,1,13)             110.9069         estimate D2E/DX2                !
 ! A4    A(11,1,12)            109.4553         estimate D2E/DX2                !
 ! A5    A(11,1,13)            108.694          estimate D2E/DX2                !
 ! A6    A(12,1,13)            107.6503         estimate D2E/DX2                !
 ! A7    A(1,2,3)              120.2817         estimate D2E/DX2                !
 ! A8    A(1,2,4)              117.8056         estimate D2E/DX2                !
 ! A9    A(3,2,4)              121.9029         estimate D2E/DX2                !
 ! A10   A(2,4,5)              117.7747         estimate D2E/DX2                !
 ! A11   A(2,4,22)             123.3851         estimate D2E/DX2                !
 ! A12   A(5,4,22)             118.5839         estimate D2E/DX2                !
 ! A13   A(4,5,6)              113.4689         estimate D2E/DX2                !
 ! A14   A(4,5,14)             108.2526         estimate D2E/DX2                !
 ! A15   A(4,5,15)             107.476          estimate D2E/DX2                !
 ! A16   A(6,5,14)             104.6405         estimate D2E/DX2                !
 ! A17   A(6,5,15)             113.836          estimate D2E/DX2                !
 ! A18   A(14,5,15)            108.9627         estimate D2E/DX2                !
 ! A19   A(5,6,7)              118.2838         estimate D2E/DX2                !
 ! A20   A(5,6,8)              119.2564         estimate D2E/DX2                !
 ! A21   A(7,6,8)              122.4541         estimate D2E/DX2                !
 ! A22   A(6,8,9)              126.0429         estimate D2E/DX2                !
 ! A23   A(6,8,10)             118.452          estimate D2E/DX2                !
 ! A24   A(9,8,10)             115.4794         estimate D2E/DX2                !
 ! A25   A(8,9,16)             111.6148         estimate D2E/DX2                !
 ! A26   A(8,9,17)             108.5535         estimate D2E/DX2                !
 ! A27   A(8,9,18)             111.2978         estimate D2E/DX2                !
 ! A28   A(16,9,17)            107.5247         estimate D2E/DX2                !
 ! A29   A(16,9,18)            109.9893         estimate D2E/DX2                !
 ! A30   A(17,9,18)            107.6959         estimate D2E/DX2                !
 ! A31   A(8,10,19)            110.461          estimate D2E/DX2                !
 ! A32   A(8,10,20)            108.667          estimate D2E/DX2                !
 ! A33   A(8,10,21)            110.1793         estimate D2E/DX2                !
 ! A34   A(19,10,20)           109.5267         estimate D2E/DX2                !
 ! A35   A(19,10,21)           108.2284         estimate D2E/DX2                !
 ! A36   A(20,10,21)           109.7697         estimate D2E/DX2                !
 ! A37   A(4,22,23)            109.9591         estimate D2E/DX2                !
 ! A38   A(4,22,24)            108.1726         estimate D2E/DX2                !
 ! A39   A(4,22,25)            114.3469         estimate D2E/DX2                !
 ! A40   A(23,22,24)           107.0618         estimate D2E/DX2                !
 ! A41   A(23,22,25)           108.4762         estimate D2E/DX2                !
 ! A42   A(24,22,25)           108.5728         estimate D2E/DX2                !
 ! A43   A(22,25,26)           110.322          estimate D2E/DX2                !
 ! A44   A(22,25,27)           109.8273         estimate D2E/DX2                !
 ! A45   A(22,25,28)           106.3577         estimate D2E/DX2                !
 ! A46   A(26,25,27)           108.0157         estimate D2E/DX2                !
 ! A47   A(26,25,28)           110.7753         estimate D2E/DX2                !
 ! A48   A(27,25,28)           111.5539         estimate D2E/DX2                !
 ! A49   A(25,28,29)           112.8689         estimate D2E/DX2                !
 ! A50   A(28,29,30)           107.2789         estimate D2E/DX2                !
 ! A51   A(28,29,31)           111.7691         estimate D2E/DX2                !
 ! A52   A(28,29,32)           111.8207         estimate D2E/DX2                !
 ! A53   A(30,29,31)           108.9583         estimate D2E/DX2                !
 ! A54   A(30,29,32)           108.7417         estimate D2E/DX2                !
 ! A55   A(31,29,32)           108.1995         estimate D2E/DX2                !
 ! D1    D(11,1,2,3)            -8.3184         estimate D2E/DX2                !
 ! D2    D(11,1,2,4)           172.7977         estimate D2E/DX2                !
 ! D3    D(12,1,2,3)          -128.9159         estimate D2E/DX2                !
 ! D4    D(12,1,2,4)            52.2002         estimate D2E/DX2                !
 ! D5    D(13,1,2,3)           110.2214         estimate D2E/DX2                !
 ! D6    D(13,1,2,4)           -68.6625         estimate D2E/DX2                !
 ! D7    D(1,2,4,5)            173.8712         estimate D2E/DX2                !
 ! D8    D(1,2,4,22)            -0.2227         estimate D2E/DX2                !
 ! D9    D(3,2,4,5)             -4.9935         estimate D2E/DX2                !
 ! D10   D(3,2,4,22)          -179.0873         estimate D2E/DX2                !
 ! D11   D(2,4,5,6)            108.67           Frozen                          !
 ! D12   D(2,4,5,14)          -135.6506         estimate D2E/DX2                !
 ! D13   D(2,4,5,15)           -18.0981         estimate D2E/DX2                !
 ! D14   D(22,4,5,6)           -76.9451         estimate D2E/DX2                !
 ! D15   D(22,4,5,14)           38.7343         estimate D2E/DX2                !
 ! D16   D(22,4,5,15)          156.2868         estimate D2E/DX2                !
 ! D17   D(2,4,22,23)           31.5837         estimate D2E/DX2                !
 ! D18   D(2,4,22,24)          148.1831         estimate D2E/DX2                !
 ! D19   D(2,4,22,25)          -90.7199         estimate D2E/DX2                !
 ! D20   D(5,4,22,23)         -142.4651         estimate D2E/DX2                !
 ! D21   D(5,4,22,24)          -25.8657         estimate D2E/DX2                !
 ! D22   D(5,4,22,25)           95.2313         estimate D2E/DX2                !
 ! D23   D(4,5,6,7)             76.3409         estimate D2E/DX2                !
 ! D24   D(4,5,6,8)           -104.5047         Scan                            !
 ! D25   D(14,5,6,7)           -41.4556         estimate D2E/DX2                !
 ! D26   D(14,5,6,8)           137.6988         estimate D2E/DX2                !
 ! D27   D(15,5,6,7)          -160.3103         estimate D2E/DX2                !
 ! D28   D(15,5,6,8)            18.8441         estimate D2E/DX2                !
 ! D29   D(5,6,8,9)              2.7544         estimate D2E/DX2                !
 ! D30   D(5,6,8,10)          -175.3109         estimate D2E/DX2                !
 ! D31   D(7,6,8,9)           -178.1281         estimate D2E/DX2                !
 ! D32   D(7,6,8,10)             3.8066         estimate D2E/DX2                !
 ! D33   D(6,8,9,16)            21.9867         estimate D2E/DX2                !
 ! D34   D(6,8,9,17)           140.3224         estimate D2E/DX2                !
 ! D35   D(6,8,9,18)          -101.3199         estimate D2E/DX2                !
 ! D36   D(10,8,9,16)         -159.8975         estimate D2E/DX2                !
 ! D37   D(10,8,9,17)          -41.5619         estimate D2E/DX2                !
 ! D38   D(10,8,9,18)           76.7958         estimate D2E/DX2                !
 ! D39   D(6,8,10,19)         -118.7923         estimate D2E/DX2                !
 ! D40   D(6,8,10,20)            1.3808         estimate D2E/DX2                !
 ! D41   D(6,8,10,21)          121.6811         estimate D2E/DX2                !
 ! D42   D(9,8,10,19)           62.9405         estimate D2E/DX2                !
 ! D43   D(9,8,10,20)         -176.8864         estimate D2E/DX2                !
 ! D44   D(9,8,10,21)          -56.5861         estimate D2E/DX2                !
 ! D45   D(4,22,25,26)          52.4876         estimate D2E/DX2                !
 ! D46   D(4,22,25,27)         -66.4674         estimate D2E/DX2                !
 ! D47   D(4,22,25,28)         172.68           estimate D2E/DX2                !
 ! D48   D(23,22,25,26)        -70.6211         estimate D2E/DX2                !
 ! D49   D(23,22,25,27)        170.424          estimate D2E/DX2                !
 ! D50   D(23,22,25,28)         49.5714         estimate D2E/DX2                !
 ! D51   D(24,22,25,26)        173.3633         estimate D2E/DX2                !
 ! D52   D(24,22,25,27)         54.4084         estimate D2E/DX2                !
 ! D53   D(24,22,25,28)        -66.4443         estimate D2E/DX2                !
 ! D54   D(22,25,28,29)        173.6559         estimate D2E/DX2                !
 ! D55   D(26,25,28,29)        -66.4455         estimate D2E/DX2                !
 ! D56   D(27,25,28,29)         53.9196         estimate D2E/DX2                !
 ! D57   D(25,28,29,30)       -179.2769         estimate D2E/DX2                !
 ! D58   D(25,28,29,31)        -59.8981         estimate D2E/DX2                !
 ! D59   D(25,28,29,32)         61.5792         estimate D2E/DX2                !
 --------------------------------------------------------------------------------
 Trust Radius=3.00D-01 FncErr=1.00D-07 GrdErr=1.00D-06
 Number of optimizations in scan=  37
 Number of steps in this run=    155 maximum allowed number of steps=    192.
 GradGradGradGradGradGradGradGradGradGradGradGradGradGradGradGradGradGrad

                          Input orientation:                          
 ---------------------------------------------------------------------
 Center     Atomic      Atomic             Coordinates (Angstroms)
 Number     Number       Type             X           Y           Z
 ---------------------------------------------------------------------
      1          6           0        1.258944    2.881281   -0.676695
      2          6           0        0.036460    2.164407   -0.123600
      3          8           0       -1.089741    2.629183   -0.302515
      4          7           0        0.240331    1.007457    0.593075
      5          6           0       -0.922029    0.391497    1.241772
      6          6           0       -1.375137   -0.918858    0.572120
      7          8           0       -0.714944   -1.940093    0.779688
      8          7           0       -2.494275   -0.916132   -0.210651
      9          6           0       -3.310159    0.249577   -0.539247
     10          6           0       -2.966730   -2.185179   -0.751725
     11          1           0        0.899177    3.688282   -1.313784
     12          1           0        1.910630    2.222592   -1.256573
     13          1           0        1.858177    3.313148    0.132297
     14          1           0       -0.633386    0.098524    2.255541
     15          1           0       -1.701565    1.147197    1.300822
     16          1           0       -2.749995    1.176959   -0.423837
     17          1           0       -3.615121    0.176895   -1.588731
     18          1           0       -4.222398    0.283289    0.072022
     19          1           0       -2.953683   -2.163096   -1.848226
     20          1           0       -2.314076   -2.979960   -0.396157
     21          1           0       -3.996077   -2.376189   -0.424633
     22          6           0        1.566927    0.436236    0.842181
     23          1           0        2.309842    1.234523    0.910891
     24          1           0        1.545080   -0.065835    1.812602
     25          6           0        2.030674   -0.568560   -0.216577
     26          1           0        1.950189   -0.127105   -1.225539
     27          1           0        1.394754   -1.462123   -0.185431
     28          8           0        3.378153   -0.877979    0.090326
     29          6           0        3.903413   -1.907721   -0.721203
     30          1           0        4.933737   -2.079874   -0.400726
     31          1           0        3.334207   -2.843309   -0.612781
     32          1           0        3.906188   -1.628154   -1.786878
 ---------------------------------------------------------------------
                    Distance matrix (angstroms):
                    1          2          3          4          5
     1  C    0.000000
     2  C    1.521279   0.000000
     3  O    2.391628   1.231404   0.000000
     4  N    2.482157   1.376125   2.280607   0.000000
     5  C    3.825726   2.434369   2.724002   1.466729   0.000000
     6  C    4.789465   3.461669   3.665383   2.514133   1.539731
     7  O    5.409522   4.269363   4.710618   3.104098   2.385942
     8  N    5.359496   3.987721   3.814500   3.438639   2.508263
     9  C    5.274605   3.878040   3.263253   3.802961   2.982505
    10  C    6.597800   5.322837   5.186806   4.720874   3.846309
    11  H    1.089296   2.117313   2.469848   3.355147   4.551533
    12  H    1.093080   2.190782   3.174550   2.772661   4.197451
    13  H    1.095471   2.168811   3.057301   2.854112   4.182885
    14  H    4.463480   3.221316   3.627140   2.086464   1.094018
    15  H    3.960080   2.466663   2.267444   2.071568   1.087311
    16  H    4.363513   2.971452   2.209099   3.163051   2.594738
    17  H    5.648188   4.408045   3.747748   4.507174   3.912869
    18  H    6.111894   4.659908   3.931544   4.551029   3.503207
    19  H    6.675661   5.535573   5.369305   5.119969   4.494625
    20  H    6.870176   5.662492   5.741973   4.837672   3.998416
    21  H    7.437726   6.080213   5.789253   5.516515   4.459458
    22  C    2.894837   2.502326   3.630046   1.465675   2.521225
    23  H    2.517266   2.665168   3.869702   2.106049   3.356362
    24  H    3.868329   3.316443   4.321935   2.083644   2.573252
    25  C    3.564923   3.384471   4.468773   2.518868   3.430298
    26  H    3.135193   3.182398   4.205980   2.741934   3.821807
    27  H    4.373207   3.873049   4.788028   2.835064   3.292461
    28  O    4.383082   4.524245   5.693557   3.695071   4.629143
    29  C    5.470808   5.647361   6.759466   4.862485   5.694257
    30  H    6.180075   6.486451   7.646382   5.705025   6.564714
    31  H    6.089477   6.015950   7.043845   5.084738   5.658523
    32  H    5.345597   5.667875   6.729603   5.103835   6.046767
                    6          7          8          9         10
     6  C    0.000000
     7  O    1.233637   0.000000
     8  N    1.365726   2.279317   0.000000
     9  C    2.518866   3.642717   1.460315   0.000000
    10  C    2.426789   2.734197   1.458237   2.468021   0.000000
    11  H    5.473105   6.218249   5.825208   5.490274   7.053984
    12  H    4.899907   5.326157   5.508968   5.627076   6.593327
    13  H    5.343935   5.885287   6.078508   6.045505   7.368366
    14  H    2.102181   2.518085   3.251851   3.872825   4.438856
    15  H    2.214982   3.282737   2.677735   2.603680   4.113189
    16  H    2.697149   3.912278   2.119403   1.089560   3.385034
    17  H    3.299618   4.301404   2.085691   1.095309   2.588510
    18  H    3.130839   4.212654   2.122481   1.098620   2.889394
    19  H    3.146110   3.459424   2.108940   2.767940   1.096801
    20  H    2.463191   2.240794   2.079969   3.382686   1.088146
    21  H    3.160167   3.522272   2.105461   2.716297   1.096827
    22  C    3.250377   3.295115   4.408029   5.072391   5.474157
    23  H    4.281458   4.386882   5.381702   5.887056   6.503912
    24  H    3.285439   3.112469   4.597058   5.404075   5.605695
    25  C    3.513446   3.226773   4.538282   5.412759   5.279573
    26  H    3.862155   3.796155   4.626643   5.318284   5.351286
    27  H    2.922553   2.368699   3.927250   5.019094   4.457134
    28  O    4.777820   4.284478   5.880260   6.811847   6.532638
    29  C    5.523914   4.856227   6.494176   7.531445   6.875811
    30  H    6.488165   5.772392   7.521023   8.567809   7.908961
    31  H    5.223545   4.376116   6.151985   7.329321   6.336738
    32  H    5.827552   5.295227   6.630037   7.560299   6.972720
                   11         12         13         14         15
    11  H    0.000000
    12  H    1.781729   0.000000
    13  H    1.775262   1.766642   0.000000
    14  H    5.289158   4.828936   4.588013   0.000000
    15  H    4.478519   4.554635   4.327650   1.775446   0.000000
    16  H    4.518319   4.848528   5.109583   3.580799   2.018549
    17  H    5.725759   5.901621   6.538732   4.865728   3.598986
    18  H    6.304361   6.568112   6.793900   4.205104   2.934431
    19  H    7.026292   6.576158   7.554185   5.228729   4.737335
    20  H    7.458719   6.756849   7.569027   4.396963   4.504257
    21  H    7.844228   7.531939   8.182360   4.961374   4.544912
    22  C    3.958520   2.777403   2.977480   2.636857   3.376219
    23  H    3.600012   2.415274   2.265147   3.429456   4.031260
    24  H    4.927969   3.845824   3.786685   2.229108   3.503437
    25  C    4.539257   2.981029   3.901170   3.695076   4.379033
    26  H    3.958483   2.350235   3.699666   4.340931   4.619703
    27  H    5.295795   3.871769   4.808214   3.536568   4.313315
    28  O    5.382154   3.685282   4.458434   4.661991   5.600908
    29  C    6.379015   4.617065   5.671766   5.785203   6.696035
    30  H    7.098096   5.327557   6.231201   6.541715   7.572086
    31  H    7.005887   5.301358   6.374619   5.711694   6.704104
    32  H    6.126208   4.369407   5.682785   6.319043   6.977346
                   16         17         18         19         20
    16  H    0.000000
    17  H    1.762257   0.000000
    18  H    1.792343   1.771498   0.000000
    19  H    3.636804   2.445485   3.358838   0.000000
    20  H    4.179805   3.616723   3.809157   1.784620   0.000000
    21  H    3.765313   2.831694   2.714905   1.777248   1.787310
    22  C    4.559308   5.729765   5.842330   5.867771   5.316584
    23  H    5.233236   6.517045   6.654225   6.845527   6.391468
    24  H    4.999387   6.185116   6.034510   6.167579   5.316373
    25  C    5.093583   5.857774   6.317424   5.481664   4.972319
    26  H    4.943181   5.585427   6.320832   5.346116   5.197173
    27  H    4.919404   5.454767   5.887711   4.707988   4.012936
    28  O    6.483929   7.268966   7.688775   6.745492   6.087402
    29  C    7.339722   7.850260   8.453315   6.953788   6.317636
    30  H    8.345492   8.921173   9.467990   8.019575   7.303490
    31  H    7.294914   7.639848   8.206513   6.444112   5.654087
    32  H    7.350599   7.737413   8.554708   6.880971   6.515610
                   21         22         23         24         25
    21  H    0.000000
    22  C    6.360941   0.000000
    23  H    7.388199   1.092660   0.000000
    24  H    6.406823   1.092826   1.757519   0.000000
    25  C    6.295438   1.531550   2.144814   2.146183   0.000000
    26  H    6.407645   2.177087   2.558850   3.065643   1.104248
    27  H    5.473006   2.165502   3.051427   2.442203   1.097187
    28  O    7.542485   2.360717   2.505450   2.643098   1.416202
    29  C    7.918924   3.660256   3.882898   3.921026   2.356937
    30  H    8.934761   4.383040   4.426103   4.520859   3.278072
    31  H    7.347562   3.999451   4.472093   4.098514   2.651539
    32  H    8.053636   4.079926   4.245138   4.579512   2.665734
                   26         27         28         29         30
    26  H    0.000000
    27  H    1.781181   0.000000
    28  O    2.081921   2.085938   0.000000
    29  C    2.690731   2.603647   1.412390   0.000000
    30  H    3.659943   3.598940   2.026210   1.092662   0.000000
    31  H    3.109460   2.419045   2.087777   1.100489   1.785020
    32  H    2.528672   2.983203   2.089373   1.101739   1.783627
                   31         32
    31  H    0.000000
    32  H    1.783891   0.000000
 Stoichiometry    C9H18N2O3
 Framework group  C1[X(C9H18N2O3)]
 Deg. of freedom    90
 Full point group                 C1      NOp   1
 Largest Abelian subgroup         C1      NOp   1
 Largest concise Abelian subgroup C1      NOp   1
                         Standard orientation:                         
 ---------------------------------------------------------------------
 Center     Atomic      Atomic             Coordinates (Angstroms)
 Number     Number       Type             X           Y           Z
 ---------------------------------------------------------------------
      1          6           0        1.258944    2.881281   -0.676695
      2          6           0        0.036460    2.164407   -0.123600
      3          8           0       -1.089741    2.629183   -0.302515
      4          7           0        0.240331    1.007457    0.593075
      5          6           0       -0.922029    0.391497    1.241772
      6          6           0       -1.375137   -0.918858    0.572120
      7          8           0       -0.714944   -1.940093    0.779688
      8          7           0       -2.494275   -0.916132   -0.210651
      9          6           0       -3.310159    0.249577   -0.539247
     10          6           0       -2.966730   -2.185179   -0.751725
     11          1           0        0.899177    3.688282   -1.313784
     12          1           0        1.910630    2.222592   -1.256573
     13          1           0        1.858177    3.313148    0.132297
     14          1           0       -0.633386    0.098524    2.255541
     15          1           0       -1.701565    1.147197    1.300822
     16          1           0       -2.749995    1.176959   -0.423837
     17          1           0       -3.615121    0.176895   -1.588731
     18          1           0       -4.222398    0.283289    0.072022
     19          1           0       -2.953683   -2.163096   -1.848226
     20          1           0       -2.314076   -2.979960   -0.396157
     21          1           0       -3.996077   -2.376189   -0.424633
     22          6           0        1.566927    0.436236    0.842181
     23          1           0        2.309842    1.234523    0.910891
     24          1           0        1.545080   -0.065835    1.812602
     25          6           0        2.030674   -0.568560   -0.216577
     26          1           0        1.950189   -0.127105   -1.225539
     27          1           0        1.394754   -1.462123   -0.185431
     28          8           0        3.378153   -0.877979    0.090326
     29          6           0        3.903413   -1.907721   -0.721203
     30          1           0        4.933737   -2.079874   -0.400726
     31          1           0        3.334207   -2.843309   -0.612781
     32          1           0        3.906188   -1.628154   -1.786878
 ---------------------------------------------------------------------
 Rotational constants (GHZ):      0.7749707      0.4636588      0.3262325
 Standard basis: 6-31G(d,p) (6D, 7F)
 There are   300 symmetry adapted basis functions of A   symmetry.
 Integral buffers will be    131072 words long.
 Raffenetti 2 integral format.
 Two-electron integral symmetry is turned on.
   300 basis functions,   518 primitive gaussians,   300 cartesian basis functions
    55 alpha electrons       55 beta electrons
       nuclear repulsion energy       976.8378434951 Hartrees.
 NAtoms=   32 NActive=   32 NUniq=   32 SFac= 1.00D+00 NAtFMM=   60 NAOKFM=F Big=F
 One-electron integrals computed using PRISM.
 NBasis=   300 RedAO= T  NBF=   300
 NBsUse=   300 1.00D-06 NBFU=   300
 Harris functional with IExCor=  402 diagonalized for initial guess.
 ExpMin= 1.61D-01 ExpMax= 5.48D+03 ExpMxC= 8.25D+02 IAcc=1 IRadAn=         1 AccDes= 0.00D+00
 HarFok:  IExCor=  402 AccDes= 0.00D+00 IRadAn=         1 IDoV= 1
 ScaDFX=  1.000000  1.000000  1.000000  1.000000
 FoFCou: FMM=F IPFlag=           0 FMFlag=      100000 FMFlg1=           0
         NFxFlg=           0 DoJE=T BraDBF=F KetDBF=T FulRan=T
         Omega=  0.000000  0.000000  1.000000  0.000000  0.000000 ICntrl=     500 IOpCl=  0
         NMat0=    1 NMatS0=    1 NMatT0=    0 NMatD0=    1 NMtDS0=    0 NMtDT0=    0
         I1Cent=           4 NGrid=           0.
 Petite list used in FoFCou.
 Initial guess orbital symmetries:
       Occupied  (A) (A) (A) (A) (A) (A) (A) (A) (A) (A) (A) (A)
                 (A) (A) (A) (A) (A) (A) (A) (A) (A) (A) (A) (A)
                 (A) (A) (A) (A) (A) (A) (A) (A) (A) (A) (A) (A)
                 (A) (A) (A) (A) (A) (A) (A) (A) (A) (A) (A) (A)
                 (A) (A) (A) (A) (A) (A) (A)
       Virtual   (A) (A) (A) (A) (A) (A) (A) (A) (A) (A) (A) (A)
                 (A) (A) (A) (A) (A) (A) (A) (A) (A) (A) (A) (A)
                 (A) (A) (A) (A) (A) (A) (A) (A) (A) (A) (A) (A)
                 (A) (A) (A) (A) (A) (A) (A) (A) (A) (A) (A) (A)
                 (A) (A) (A) (A) (A) (A) (A) (A) (A) (A) (A) (A)
                 (A) (A) (A) (A) (A) (A) (A) (A) (A) (A) (A) (A)
                 (A) (A) (A) (A) (A) (A) (A) (A) (A) (A) (A) (A)
                 (A) (A) (A) (A) (A) (A) (A) (A) (A) (A) (A) (A)
                 (A) (A) (A) (A) (A) (A) (A) (A) (A) (A) (A) (A)
                 (A) (A) (A) (A) (A) (A) (A) (A) (A) (A) (A) (A)
                 (A) (A) (A) (A) (A) (A) (A) (A) (A) (A) (A) (A)
                 (A) (A) (A) (A) (A) (A) (A) (A) (A) (A) (A) (A)
                 (A) (A) (A) (A) (A) (A) (A) (A) (A) (A) (A) (A)
                 (A) (A) (A) (A) (A) (A) (A) (A) (A) (A) (A) (A)
                 (A) (A) (A) (A) (A) (A) (A) (A) (A) (A) (A) (A)
                 (A) (A) (A) (A) (A) (A) (A) (A) (A) (A) (A) (A)
                 (A) (A) (A) (A) (A) (A) (A) (A) (A) (A) (A) (A)
                 (A) (A) (A) (A) (A) (A) (A) (A) (A) (A) (A) (A)
                 (A) (A) (A) (A) (A) (A) (A) (A) (A) (A) (A) (A)
                 (A) (A) (A) (A) (A) (A) (A) (A) (A) (A) (A) (A)
                 (A) (A) (A) (A) (A)
 The electronic state of the initial guess is 1-A.
 Requested convergence on RMS density matrix=1.00D-08 within 128 cycles.
 Requested convergence on MAX density matrix=1.00D-06.
 Requested convergence on             energy=1.00D-06.
 No special actions if energy rises.
 Keep R1 ints in memory in canonical form, NReq=1033484352.
 Integral accuracy reduced to 1.0D-05 until final iterations.
 Initial convergence to 1.0D-05 achieved.  Increase integral accuracy.
 SCF Done:  E(RB3LYP) =  -688.998852431     A.U. after   14 cycles
             Convg  =    0.6554D-08             -V/T =  2.0094

 **********************************************************************

            Population analysis using the SCF density.

 **********************************************************************

 Orbital symmetries:
       Occupied  (A) (A) (A) (A) (A) (A) (A) (A) (A) (A) (A) (A)
                 (A) (A) (A) (A) (A) (A) (A) (A) (A) (A) (A) (A)
                 (A) (A) (A) (A) (A) (A) (A) (A) (A) (A) (A) (A)
                 (A) (A) (A) (A) (A) (A) (A) (A) (A) (A) (A) (A)
                 (A) (A) (A) (A) (A) (A) (A)
       Virtual   (A) (A) (A) (A) (A) (A) (A) (A) (A) (A) (A) (A)
                 (A) (A) (A) (A) (A) (A) (A) (A) (A) (A) (A) (A)
                 (A) (A) (A) (A) (A) (A) (A) (A) (A) (A) (A) (A)
                 (A) (A) (A) (A) (A) (A) (A) (A) (A) (A) (A) (A)
                 (A) (A) (A) (A) (A) (A) (A) (A) (A) (A) (A) (A)
                 (A) (A) (A) (A) (A) (A) (A) (A) (A) (A) (A) (A)
                 (A) (A) (A) (A) (A) (A) (A) (A) (A) (A) (A) (A)
                 (A) (A) (A) (A) (A) (A) (A) (A) (A) (A) (A) (A)
                 (A) (A) (A) (A) (A) (A) (A) (A) (A) (A) (A) (A)
                 (A) (A) (A) (A) (A) (A) (A) (A) (A) (A) (A) (A)
                 (A) (A) (A) (A) (A) (A) (A) (A) (A) (A) (A) (A)
                 (A) (A) (A) (A) (A) (A) (A) (A) (A) (A) (A) (A)
                 (A) (A) (A) (A) (A) (A) (A) (A) (A) (A) (A) (A)
                 (A) (A) (A) (A) (A) (A) (A) (A) (A) (A) (A) (A)
                 (A) (A) (A) (A) (A) (A) (A) (A) (A) (A) (A) (A)
                 (A) (A) (A) (A) (A) (A) (A) (A) (A) (A) (A) (A)
                 (A) (A) (A) (A) (A) (A) (A) (A) (A) (A) (A) (A)
                 (A) (A) (A) (A) (A) (A) (A) (A) (A) (A) (A) (A)
                 (A) (A) (A) (A) (A) (A) (A) (A) (A) (A) (A) (A)
                 (A) (A) (A) (A) (A) (A) (A) (A) (A) (A) (A) (A)
                 (A) (A) (A) (A) (A)
 The electronic state is 1-A.
 Alpha  occ. eigenvalues --  -19.14752 -19.11508 -19.10807 -14.37170 -14.36850
 Alpha  occ. eigenvalues --  -10.29085 -10.28398 -10.22673 -10.22622 -10.22601
 Alpha  occ. eigenvalues --  -10.22421 -10.21368 -10.21235 -10.19301  -1.03628
 Alpha  occ. eigenvalues --   -1.03018  -1.02699  -0.93475  -0.92999  -0.77121
 Alpha  occ. eigenvalues --   -0.75403  -0.72478  -0.71097  -0.68155  -0.67243
 Alpha  occ. eigenvalues --   -0.61888  -0.55942  -0.53584  -0.51805  -0.49406
 Alpha  occ. eigenvalues --   -0.49147  -0.47723  -0.47108  -0.46768  -0.46037
 Alpha  occ. eigenvalues --   -0.44746  -0.43771  -0.41947  -0.41333  -0.40770
 Alpha  occ. eigenvalues --   -0.40294  -0.40096  -0.39728  -0.38704  -0.37443
 Alpha  occ. eigenvalues --   -0.37309  -0.36427  -0.35500  -0.35161  -0.31873
 Alpha  occ. eigenvalues --   -0.26211  -0.25423  -0.25273  -0.23816  -0.23423
 Alpha virt. eigenvalues --    0.01287   0.02492   0.08568   0.09404   0.09761
 Alpha virt. eigenvalues --    0.11104   0.13166   0.13543   0.13811   0.14811
 Alpha virt. eigenvalues --    0.15179   0.15746   0.16418   0.16587   0.17172
 Alpha virt. eigenvalues --    0.17477   0.17700   0.18118   0.18803   0.20327
 Alpha virt. eigenvalues --    0.20578   0.21374   0.22012   0.22296   0.23062
 Alpha virt. eigenvalues --    0.23271   0.26278   0.28080   0.29366   0.32514
 Alpha virt. eigenvalues --    0.35141   0.37838   0.41479   0.46938   0.48260
 Alpha virt. eigenvalues --    0.50495   0.50744   0.50980   0.51846   0.53594
 Alpha virt. eigenvalues --    0.53889   0.54660   0.56280   0.56769   0.57562
 Alpha virt. eigenvalues --    0.59970   0.60853   0.62577   0.63395   0.64683
 Alpha virt. eigenvalues --    0.66695   0.66877   0.69488   0.69582   0.70461
 Alpha virt. eigenvalues --    0.72305   0.72856   0.75148   0.76096   0.76345
 Alpha virt. eigenvalues --    0.79375   0.79925   0.80989   0.81816   0.82288
 Alpha virt. eigenvalues --    0.83518   0.84322   0.84754   0.85502   0.85907
 Alpha virt. eigenvalues --    0.86517   0.87212   0.88328   0.89830   0.91002
 Alpha virt. eigenvalues --    0.91888   0.92810   0.93710   0.95042   0.95537
 Alpha virt. eigenvalues --    0.96147   0.97507   0.98378   0.99647   1.02221
 Alpha virt. eigenvalues --    1.03267   1.04704   1.06990   1.08453   1.11642
 Alpha virt. eigenvalues --    1.13927   1.16316   1.18586   1.18837   1.26209
 Alpha virt. eigenvalues --    1.26806   1.28076   1.28938   1.32133   1.33155
 Alpha virt. eigenvalues --    1.34299   1.37527   1.38269   1.39213   1.41219
 Alpha virt. eigenvalues --    1.42800   1.44319   1.47321   1.50040   1.51076
 Alpha virt. eigenvalues --    1.53816   1.58796   1.60741   1.61887   1.65384
 Alpha virt. eigenvalues --    1.67217   1.70334   1.71848   1.73369   1.74417
 Alpha virt. eigenvalues --    1.76592   1.77617   1.78136   1.81279   1.83669
 Alpha virt. eigenvalues --    1.83821   1.84418   1.86824   1.87897   1.88186
 Alpha virt. eigenvalues --    1.89168   1.89879   1.91441   1.92961   1.94706
 Alpha virt. eigenvalues --    1.96208   1.96924   1.97798   1.99435   2.00781
 Alpha virt. eigenvalues --    2.01527   2.02630   2.03115   2.03354   2.03500
 Alpha virt. eigenvalues --    2.04051   2.04573   2.05195   2.05534   2.07722
 Alpha virt. eigenvalues --    2.08872   2.09365   2.10419   2.11333   2.12073
 Alpha virt. eigenvalues --    2.12895   2.14049   2.15797   2.19358   2.22984
 Alpha virt. eigenvalues --    2.23794   2.26047   2.27189   2.27943   2.29239
 Alpha virt. eigenvalues --    2.31550   2.33089   2.35135   2.37287   2.38249
 Alpha virt. eigenvalues --    2.40239   2.43519   2.44946   2.47463   2.50470
 Alpha virt. eigenvalues --    2.51126   2.52845   2.55464   2.56059   2.56857
 Alpha virt. eigenvalues --    2.59339   2.59939   2.61231   2.63503   2.65492
 Alpha virt. eigenvalues --    2.65556   2.66466   2.67782   2.69205   2.70043
 Alpha virt. eigenvalues --    2.70704   2.71356   2.73799   2.74917   2.79410
 Alpha virt. eigenvalues --    2.80549   2.81179   2.84130   2.84932   2.86419
 Alpha virt. eigenvalues --    2.87681   2.87715   2.89659   2.90509   2.91126
 Alpha virt. eigenvalues --    2.97047   2.97930   3.01230   3.05042   3.07604
 Alpha virt. eigenvalues --    3.11962   3.12959   3.15887   3.17912   3.18512
 Alpha virt. eigenvalues --    3.23434   3.26277   3.28218   3.34563   3.37470
 Alpha virt. eigenvalues --    3.38859   3.40087   3.42420   3.43309   3.43829
 Alpha virt. eigenvalues --    3.44292   3.44678   3.46289   3.49370   3.50074
 Alpha virt. eigenvalues --    3.55724   3.95215   4.01604   4.06569   4.10260
 Alpha virt. eigenvalues --    4.21075   4.28042   4.38036   4.40032   4.45634
 Alpha virt. eigenvalues --    4.51051   4.54495   4.63264   4.70337   4.76366
          Condensed to atoms (all electrons):
              1          2          3          4          5          6
     1  C    5.146409   0.349193  -0.078107  -0.119002   0.005998  -0.000138
     2  C    0.349193   4.386204   0.562551   0.266035  -0.026309  -0.001782
     3  O   -0.078107   0.562551   8.088254  -0.098005  -0.003975  -0.000169
     4  N   -0.119002   0.266035  -0.098005   7.080922   0.290427  -0.048149
     5  C    0.005998  -0.026309  -0.003975   0.290427   5.009871   0.332627
     6  C   -0.000138  -0.001782  -0.000169  -0.048149   0.332627   4.434479
     7  O   -0.000002  -0.000093  -0.000002  -0.002384  -0.080336   0.529657
     8  N    0.000008   0.000892   0.000062  -0.000094  -0.095516   0.298081
     9  C   -0.000112  -0.000064  -0.014726   0.001122   0.000771  -0.024053
    10  C    0.000000  -0.000028  -0.000001  -0.000127   0.005683  -0.031380
    11  H    0.368056  -0.023302   0.005101   0.004601  -0.000129   0.000004
    12  H    0.360599  -0.020631   0.001920   0.001645  -0.000135   0.000013
    13  H    0.365912  -0.022238   0.000877   0.001423  -0.000185  -0.000004
    14  H   -0.000124   0.004346   0.000757  -0.039409   0.369490  -0.039823
    15  H    0.000848  -0.006050   0.015312  -0.039271   0.353526  -0.027982
    16  H    0.000465  -0.000434   0.034469  -0.002993   0.000077  -0.003769
    17  H    0.000001  -0.000012   0.000057   0.000030  -0.000130   0.001922
    18  H    0.000000   0.000020   0.000185  -0.000040  -0.000118  -0.001354
    19  H    0.000000  -0.000001   0.000000   0.000018  -0.000174   0.001593
    20  H    0.000000   0.000000   0.000000  -0.000017   0.001033  -0.004006
    21  H    0.000000   0.000001   0.000000  -0.000002  -0.000145   0.001113
    22  C    0.001627  -0.027762   0.002305   0.247197  -0.040043  -0.000695
    23  H    0.006609  -0.009589   0.000100  -0.033838   0.002886   0.000025
    24  H   -0.000261   0.003095  -0.000090  -0.031613  -0.005339  -0.001947
    25  C   -0.002215  -0.000811   0.000010  -0.049482   0.000448   0.002063
    26  H   -0.001562   0.002361  -0.000078   0.003132  -0.000008  -0.000024
    27  H    0.000080  -0.000111   0.000002   0.001430  -0.000138   0.000886
    28  O   -0.000013   0.000026   0.000000   0.001980  -0.000007  -0.000029
    29  C    0.000002  -0.000003   0.000000  -0.000122   0.000001   0.000001
    30  H    0.000000   0.000000   0.000000   0.000001   0.000000   0.000000
    31  H    0.000000   0.000000   0.000000   0.000004  -0.000001   0.000003
    32  H   -0.000002   0.000000   0.000000   0.000014   0.000000   0.000000
              7          8          9         10         11         12
     1  C   -0.000002   0.000008  -0.000112   0.000000   0.368056   0.360599
     2  C   -0.000093   0.000892  -0.000064  -0.000028  -0.023302  -0.020631
     3  O   -0.000002   0.000062  -0.014726  -0.000001   0.005101   0.001920
     4  N   -0.002384  -0.000094   0.001122  -0.000127   0.004601   0.001645
     5  C   -0.080336  -0.095516   0.000771   0.005683  -0.000129  -0.000135
     6  C    0.529657   0.298081  -0.024053  -0.031380   0.000004   0.000013
     7  O    8.140691  -0.092439   0.002672  -0.012955   0.000000   0.000000
     8  N   -0.092439   6.980437   0.282148   0.290273   0.000000   0.000000
     9  C    0.002672   0.282148   4.876879  -0.049284   0.000001   0.000005
    10  C   -0.012955   0.290273  -0.049284   4.828153   0.000000   0.000000
    11  H    0.000000   0.000000   0.000001   0.000000   0.545848  -0.022783
    12  H    0.000000   0.000000   0.000005   0.000000  -0.022783   0.573780
    13  H    0.000000   0.000000   0.000001   0.000000  -0.021500  -0.028333
    14  H    0.001012   0.003330   0.000119  -0.000187   0.000002  -0.000010
    15  H    0.003396   0.001810  -0.000842  -0.000228  -0.000030  -0.000012
    16  H    0.000005  -0.026734   0.367307   0.003691  -0.000003  -0.000022
    17  H   -0.000054  -0.040416   0.385230  -0.004430   0.000000   0.000000
    18  H   -0.000027  -0.046006   0.377002  -0.000286   0.000000   0.000000
    19  H    0.000668  -0.042377  -0.003446   0.385346   0.000000   0.000000
    20  H    0.024738  -0.035703   0.004394   0.382867   0.000000   0.000000
    21  H    0.000750  -0.046156  -0.000002   0.386529   0.000000   0.000000
    22  C    0.005225   0.000111  -0.000034   0.000002   0.000302  -0.000943
    23  H    0.000065   0.000003   0.000000   0.000000   0.000034  -0.002639
    24  H    0.002176   0.000019  -0.000002  -0.000001  -0.000010   0.000191
    25  C   -0.009935   0.000014   0.000007  -0.000005   0.000027   0.000130
    26  H    0.000280  -0.000012  -0.000003   0.000000  -0.000040   0.004424
    27  H    0.017840  -0.000202  -0.000005   0.000025   0.000000  -0.000068
    28  O    0.000055   0.000000   0.000000   0.000000   0.000000  -0.000017
    29  C    0.000004   0.000000   0.000000   0.000000   0.000000  -0.000007
    30  H    0.000000   0.000000   0.000000   0.000000   0.000000   0.000000
    31  H   -0.000032   0.000000   0.000000   0.000000   0.000000   0.000000
    32  H    0.000001   0.000000   0.000000   0.000000   0.000000   0.000004
             13         14         15         16         17         18
     1  C    0.365912  -0.000124   0.000848   0.000465   0.000001   0.000000
     2  C   -0.022238   0.004346  -0.006050  -0.000434  -0.000012   0.000020
     3  O    0.000877   0.000757   0.015312   0.034469   0.000057   0.000185
     4  N    0.001423  -0.039409  -0.039271  -0.002993   0.000030  -0.000040
     5  C   -0.000185   0.369490   0.353526   0.000077  -0.000130  -0.000118
     6  C   -0.000004  -0.039823  -0.027982  -0.003769   0.001922  -0.001354
     7  O    0.000000   0.001012   0.003396   0.000005  -0.000054  -0.000027
     8  N    0.000000   0.003330   0.001810  -0.026734  -0.040416  -0.046006
     9  C    0.000001   0.000119  -0.000842   0.367307   0.385230   0.377002
    10  C    0.000000  -0.000187  -0.000228   0.003691  -0.004430  -0.000286
    11  H   -0.021500   0.000002  -0.000030  -0.000003   0.000000   0.000000
    12  H   -0.028333  -0.000010  -0.000012  -0.000022   0.000000   0.000000
    13  H    0.566289   0.000013  -0.000036  -0.000004   0.000000   0.000000
    14  H    0.000013   0.591659  -0.021702   0.000059  -0.000017   0.000080
    15  H   -0.000036  -0.021702   0.579446  -0.002290   0.000172   0.000486
    16  H   -0.000004   0.000059  -0.002290   0.502883  -0.022138  -0.026446
    17  H    0.000000  -0.000017   0.000172  -0.022138   0.606147  -0.045205
    18  H    0.000000   0.000080   0.000486  -0.026446  -0.045205   0.626123
    19  H    0.000000  -0.000001   0.000000   0.000066   0.006962  -0.001152
    20  H    0.000000  -0.000027  -0.000053  -0.000185   0.000045  -0.000104
    21  H    0.000000   0.000018  -0.000016  -0.000019  -0.002559   0.005002
    22  C   -0.002822  -0.007492   0.003855  -0.000017   0.000002   0.000000
    23  H    0.002315   0.000623  -0.000108  -0.000001   0.000000   0.000000
    24  H    0.000154   0.007250   0.000541  -0.000004   0.000000   0.000000
    25  C    0.000091  -0.000740  -0.000200   0.000005  -0.000001   0.000000
    26  H    0.000111   0.000018   0.000020   0.000000   0.000001   0.000000
    27  H   -0.000007   0.000218  -0.000007  -0.000001   0.000002  -0.000001
    28  O   -0.000014   0.000005   0.000001   0.000000   0.000000   0.000000
    29  C    0.000000   0.000000   0.000000   0.000000   0.000000   0.000000
    30  H    0.000000   0.000000   0.000000   0.000000   0.000000   0.000000
    31  H    0.000000   0.000000   0.000000   0.000000   0.000000   0.000000
    32  H    0.000000   0.000000   0.000000   0.000000   0.000000   0.000000
             19         20         21         22         23         24
     1  C    0.000000   0.000000   0.000000   0.001627   0.006609  -0.000261
     2  C   -0.000001   0.000000   0.000001  -0.027762  -0.009589   0.003095
     3  O    0.000000   0.000000   0.000000   0.002305   0.000100  -0.000090
     4  N    0.000018  -0.000017  -0.000002   0.247197  -0.033838  -0.031613
     5  C   -0.000174   0.001033  -0.000145  -0.040043   0.002886  -0.005339
     6  C    0.001593  -0.004006   0.001113  -0.000695   0.000025  -0.001947
     7  O    0.000668   0.024738   0.000750   0.005225   0.000065   0.002176
     8  N   -0.042377  -0.035703  -0.046156   0.000111   0.000003   0.000019
     9  C   -0.003446   0.004394  -0.000002  -0.000034   0.000000  -0.000002
    10  C    0.385346   0.382867   0.386529   0.000002   0.000000  -0.000001
    11  H    0.000000   0.000000   0.000000   0.000302   0.000034  -0.000010
    12  H    0.000000   0.000000   0.000000  -0.000943  -0.002639   0.000191
    13  H    0.000000   0.000000   0.000000  -0.002822   0.002315   0.000154
    14  H   -0.000001  -0.000027   0.000018  -0.007492   0.000623   0.007250
    15  H    0.000000  -0.000053  -0.000016   0.003855  -0.000108   0.000541
    16  H    0.000066  -0.000185  -0.000019  -0.000017  -0.000001  -0.000004
    17  H    0.006962   0.000045  -0.002559   0.000002   0.000000   0.000000
    18  H   -0.001152  -0.000104   0.005002   0.000000   0.000000   0.000000
    19  H    0.607580  -0.025674  -0.043535   0.000000   0.000000   0.000000
    20  H   -0.025674   0.518096  -0.024031  -0.000004   0.000000  -0.000002
    21  H   -0.043535  -0.024031   0.609697   0.000000   0.000000   0.000000
    22  C    0.000000  -0.000004   0.000000   4.897653   0.375135   0.374836
    23  H    0.000000   0.000000   0.000000   0.375135   0.609890  -0.030114
    24  H    0.000000  -0.000002   0.000000   0.374836  -0.030114   0.590242
    25  C   -0.000002   0.000002   0.000000   0.360990  -0.048800  -0.042147
    26  H    0.000000  -0.000001   0.000000  -0.048048  -0.006912   0.006610
    27  H    0.000017   0.000019  -0.000001  -0.030838   0.006355  -0.008317
    28  O    0.000000   0.000000   0.000000  -0.040122   0.006718   0.005309
    29  C    0.000000   0.000000   0.000000   0.004515  -0.000126  -0.000074
    30  H    0.000000   0.000000   0.000000  -0.000276   0.000008   0.000008
    31  H    0.000000   0.000000   0.000000   0.000112   0.000072  -0.000074
    32  H    0.000000   0.000000   0.000000  -0.000024  -0.000064   0.000041
             25         26         27         28         29         30
     1  C   -0.002215  -0.001562   0.000080  -0.000013   0.000002   0.000000
     2  C   -0.000811   0.002361  -0.000111   0.000026  -0.000003   0.000000
     3  O    0.000010  -0.000078   0.000002   0.000000   0.000000   0.000000
     4  N   -0.049482   0.003132   0.001430   0.001980  -0.000122   0.000001
     5  C    0.000448  -0.000008  -0.000138  -0.000007   0.000001   0.000000
     6  C    0.002063  -0.000024   0.000886  -0.000029   0.000001   0.000000
     7  O   -0.009935   0.000280   0.017840   0.000055   0.000004   0.000000
     8  N    0.000014  -0.000012  -0.000202   0.000000   0.000000   0.000000
     9  C    0.000007  -0.000003  -0.000005   0.000000   0.000000   0.000000
    10  C   -0.000005   0.000000   0.000025   0.000000   0.000000   0.000000
    11  H    0.000027  -0.000040   0.000000   0.000000   0.000000   0.000000
    12  H    0.000130   0.004424  -0.000068  -0.000017  -0.000007   0.000000
    13  H    0.000091   0.000111  -0.000007  -0.000014   0.000000   0.000000
    14  H   -0.000740   0.000018   0.000218   0.000005   0.000000   0.000000
    15  H   -0.000200   0.000020  -0.000007   0.000001   0.000000   0.000000
    16  H    0.000005   0.000000  -0.000001   0.000000   0.000000   0.000000
    17  H   -0.000001   0.000001   0.000002   0.000000   0.000000   0.000000
    18  H    0.000000   0.000000  -0.000001   0.000000   0.000000   0.000000
    19  H   -0.000002   0.000000   0.000017   0.000000   0.000000   0.000000
    20  H    0.000002  -0.000001   0.000019   0.000000   0.000000   0.000000
    21  H    0.000000   0.000000  -0.000001   0.000000   0.000000   0.000000
    22  C    0.360990  -0.048048  -0.030838  -0.040122   0.004515  -0.000276
    23  H   -0.048800  -0.006912   0.006355   0.006718  -0.000126   0.000008
    24  H   -0.042147   0.006610  -0.008317   0.005309  -0.000074   0.000008
    25  C    4.819759   0.354421   0.362807   0.222136  -0.034833   0.005437
    26  H    0.354421   0.702515  -0.053699  -0.039702  -0.004958  -0.000134
    27  H    0.362807  -0.053699   0.602162  -0.032371  -0.006229  -0.000041
    28  O    0.222136  -0.039702  -0.032371   8.215790   0.259745  -0.033286
    29  C   -0.034833  -0.004958  -0.006229   0.259745   4.705204   0.393573
    30  H    0.005437  -0.000134  -0.000041  -0.033286   0.393573   0.591853
    31  H   -0.007030  -0.002608   0.012227  -0.037759   0.373071  -0.034425
    32  H   -0.009763   0.012306  -0.002503  -0.037611   0.369003  -0.036072
             31         32
     1  C    0.000000  -0.000002
     2  C    0.000000   0.000000
     3  O    0.000000   0.000000
     4  N    0.000004   0.000014
     5  C   -0.000001   0.000000
     6  C    0.000003   0.000000
     7  O   -0.000032   0.000001
     8  N    0.000000   0.000000
     9  C    0.000000   0.000000
    10  C    0.000000   0.000000
    11  H    0.000000   0.000000
    12  H    0.000000   0.000004
    13  H    0.000000   0.000000
    14  H    0.000000   0.000000
    15  H    0.000000   0.000000
    16  H    0.000000   0.000000
    17  H    0.000000   0.000000
    18  H    0.000000   0.000000
    19  H    0.000000   0.000000
    20  H    0.000000   0.000000
    21  H    0.000000   0.000000
    22  C    0.000112  -0.000024
    23  H    0.000072  -0.000064
    24  H   -0.000074   0.000041
    25  C   -0.007030  -0.009763
    26  H   -0.002608   0.012306
    27  H    0.012227  -0.002503
    28  O   -0.037759  -0.037611
    29  C    0.373071   0.369003
    30  H   -0.034425  -0.036072
    31  H    0.648755  -0.052419
    32  H   -0.052419   0.669156
 Mulliken atomic charges:
              1
     1  C   -0.404270
     2  C    0.564498
     3  O   -0.516808
     4  N   -0.435431
     5  C   -0.120153
     6  C    0.582838
     7  O   -0.530975
     8  N   -0.431531
     9  C   -0.205086
    10  C   -0.183656
    11  H    0.143821
    12  H    0.132890
    13  H    0.137960
    14  H    0.130534
    15  H    0.139414
    16  H    0.176034
    17  H    0.114392
    18  H    0.111840
    19  H    0.114112
    20  H    0.158611
    21  H    0.113357
    22  C   -0.074746
    23  H    0.121353
    24  H    0.129522
    25  C    0.077617
    26  H    0.071594
    27  H    0.130471
    28  O   -0.490834
    29  C   -0.058763
    30  H    0.113355
    31  H    0.100104
    32  H    0.087933
 Sum of Mulliken atomic charges =   0.00000
 Mulliken charges with hydrogens summed into heavy atoms:
              1
     1  C    0.010401
     2  C    0.564498
     3  O   -0.516808
     4  N   -0.435431
     5  C    0.149796
     6  C    0.582838
     7  O   -0.530975
     8  N   -0.431531
     9  C    0.197180
    10  C    0.202425
    22  C    0.176129
    25  C    0.279682
    28  O   -0.490834
    29  C    0.242629
 Sum of Mulliken charges with hydrogens summed into heavy atoms =   0.00000
 Electronic spatial extent (au):  <R**2>=           3550.2559
 Charge=              0.0000 electrons
 Dipole moment (field-independent basis, Debye):
    X=             -0.1642    Y=             -0.1106    Z=             -1.0399  Tot=              1.0586
 Quadrupole moment (field-independent basis, Debye-Ang):
   XX=            -77.0957   YY=            -90.8648   ZZ=            -82.2716
   XY=              5.4260   XZ=             -2.0349   YZ=              5.4651
 Traceless Quadrupole moment (field-independent basis, Debye-Ang):
   XX=              6.3150   YY=             -7.4541   ZZ=              1.1391
   XY=              5.4260   XZ=             -2.0349   YZ=              5.4651
 Octapole moment (field-independent basis, Debye-Ang**2):
  XXX=            -25.2314  YYY=            -12.4227  ZZZ=              3.9256  XYY=             27.5287
  XXY=            -23.7698  XXZ=            -14.4069  XZZ=             -0.0566  YZZ=              2.1353
  YYZ=             -7.8025  XYZ=             -1.5474
 Hexadecapole moment (field-independent basis, Debye-Ang**3):
 XXXX=          -2578.6087 YYYY=          -1539.3353 ZZZZ=           -351.3763 XXXY=            -44.9642
 XXXZ=            -22.8889 YYYX=             41.1263 YYYZ=             15.0186 ZZZX=              5.5525
 ZZZY=             -5.6000 XXYY=           -653.0987 XXZZ=           -500.6366 YYZZ=           -313.7106
 XXYZ=             27.7319 YYXZ=             -3.8150 ZZXY=             -2.1048
 N-N= 9.768378434951D+02 E-N=-3.559593620061D+03  KE= 6.826126258905D+02
 Calling FoFJK, ICntrl=      2127 FMM=F ISym2X=0 I1Cent= 0 IOpClX= 0 NMat=1 NMatS=1 NMatT=0.
 ***** Axes restored to original set *****
 -------------------------------------------------------------------
 Center     Atomic                   Forces (Hartrees/Bohr)
 Number     Number              X              Y              Z
 -------------------------------------------------------------------
      1        6          -0.000001646    0.000001815    0.000002052
      2        6          -0.000100350   -0.000257373   -0.000409568
      3        8           0.000009699   -0.000004632    0.000003539
      4        7           0.000013188    0.000481483    0.000486855
      5        6           0.000343470   -0.000463120    0.000187210
      6        6          -0.000268682    0.000239013   -0.000272782
      7        8           0.000002242   -0.000011400    0.000002188
      8        7          -0.000000376   -0.000001765    0.000021824
      9        6          -0.000004952    0.000005175    0.000009107
     10        6           0.000002346   -0.000006673   -0.000004624
     11        1          -0.000007388    0.000002966    0.000002695
     12        1          -0.000002155    0.000004108    0.000000502
     13        1          -0.000003044    0.000000299   -0.000000032
     14        1           0.000006200    0.000007287    0.000006021
     15        1          -0.000002747   -0.000004860    0.000001335
     16        1          -0.000001001   -0.000005653    0.000002172
     17        1           0.000000070    0.000001202    0.000004370
     18        1           0.000002165   -0.000009110    0.000004545
     19        1          -0.000000831    0.000000853    0.000001344
     20        1          -0.000000824    0.000000208    0.000002055
     21        1           0.000002464   -0.000003885    0.000002098
     22        6           0.000001353   -0.000007376   -0.000002139
     23        1           0.000002187   -0.000000528   -0.000002263
     24        1           0.000000468    0.000001224    0.000001861
     25        6          -0.000002019   -0.000001243   -0.000010402
     26        1          -0.000001980    0.000006771   -0.000002276
     27        1           0.000005316    0.000002258   -0.000002404
     28        8           0.000010897   -0.000004108   -0.000004273
     29        6          -0.000007882    0.000019253   -0.000001427
     30        1           0.000003141    0.000005192   -0.000009528
     31        1           0.000002041   -0.000001138   -0.000008418
     32        1          -0.000001369    0.000003757   -0.000011639
 -------------------------------------------------------------------
 Cartesian Forces:  Max     0.000486855 RMS     0.000115784

 GradGradGradGradGradGradGradGradGradGradGradGradGradGradGradGradGradGrad
 Berny optimization.
 Internal  Forces:  Max     0.000438514 RMS     0.000059725
 Search for a local minimum.
 Step number   1 out of a maximum of  155 on scan point     1 out of    37
 All quantities printed in internal units (Hartrees-Bohrs-Radians)
 Mixed Optimization -- En-DIIS/RFO-DIIS
 Second derivative matrix not updated -- first step.
 ITU=  0
     Eigenvalues ---    0.00349   0.00484   0.00729   0.00823   0.00894
     Eigenvalues ---    0.00921   0.01050   0.01107   0.01250   0.01477
     Eigenvalues ---    0.01528   0.02008   0.02145   0.02767   0.03994
     Eigenvalues ---    0.05462   0.05482   0.05911   0.06407   0.06925
     Eigenvalues ---    0.07157   0.07468   0.07503   0.07626   0.07641
     Eigenvalues ---    0.09650   0.09929   0.10037   0.10509   0.10947
     Eigenvalues ---    0.10963   0.13032   0.13515   0.16000   0.16000
     Eigenvalues ---    0.16000   0.16000   0.16000   0.16000   0.16000
     Eigenvalues ---    0.16000   0.16000   0.16000   0.16000   0.16000
     Eigenvalues ---    0.21948   0.21999   0.22062   0.24835   0.24915
     Eigenvalues ---    0.24985   0.24992   0.24996   0.24997   0.25000
     Eigenvalues ---    0.25000   0.25000   0.28543   0.29281   0.30244
     Eigenvalues ---    0.33217   0.33491   0.33628   0.33835   0.33995
     Eigenvalues ---    0.34035   0.34038   0.34188   0.34206   0.34352
     Eigenvalues ---    0.34459   0.34488   0.34507   0.34507   0.34864
     Eigenvalues ---    0.34894   0.35028   0.35125   0.36135   0.36263
     Eigenvalues ---    0.36925   0.37186   0.43037   0.43627   0.49818
     Eigenvalues ---    0.51807   0.89588   0.905041000.000001000.00000
     Eigenvalues --- 1000.000001000.000001000.000001000.000001000.00000
     Eigenvalues --- 1000.000001000.000001000.000001000.000001000.00000
     Eigenvalues --- 1000.000001000.000001000.000001000.000001000.00000
     Eigenvalues --- 1000.000001000.000001000.000001000.000001000.00000
     Eigenvalues --- 1000.000001000.000001000.000001000.000001000.00000
     Eigenvalues --- 1000.000001000.000001000.000001000.000001000.00000
     Eigenvalues --- 1000.000001000.000001000.000001000.000001000.00000
     Eigenvalues --- 1000.000001000.000001000.000001000.000001000.00000
     Eigenvalues --- 1000.000001000.000001000.000001000.000001000.00000
     Eigenvalues --- 1000.000001000.000001000.000001000.000001000.00000
     Eigenvalues --- 1000.000001000.000001000.000001000.000001000.00000
 RFO step:  Lambda=-3.41602414D-08 EMin= 3.48604092D-03
 Linear search not attempted -- first point.
 Iteration  1 RMS(Cart)=  0.00065836 RMS(Int)=  0.00000006
 Iteration  2 RMS(Cart)=  0.00000013 RMS(Int)=  0.00000000
 Iteration  1 RMS(Cart)=  0.00000000 RMS(Int)=  0.00000000
 Variable       Old X    -DE/DX   Delta X   Delta X   Delta X     New X
                                 (Linear)    (Quad)   (Total)
    R1        2.87480   0.00000   0.00000   0.00001   0.00001   2.87481
    R2        2.05847   0.00000   0.00000   0.00001   0.00001   2.05848
    R3        2.06562   0.00000   0.00000   0.00000   0.00000   2.06562
    R4        2.07014   0.00000   0.00000  -0.00001  -0.00001   2.07014
    R5        2.32702  -0.00001   0.00000  -0.00001  -0.00001   2.32700
    R6        2.60050   0.00001   0.00000   0.00002   0.00002   2.60052
    R7        2.77172   0.00001   0.00000   0.00002   0.00002   2.77173
    R8        2.76972   0.00000   0.00000   0.00001   0.00001   2.76974
    R9        2.90967   0.00000   0.00000  -0.00002  -0.00002   2.90965
   R10        2.06739   0.00000   0.00000   0.00001   0.00001   2.06740
   R11        2.05472   0.00000   0.00000   0.00000   0.00000   2.05472
   R12        2.33124   0.00001   0.00000   0.00001   0.00001   2.33125
   R13        2.58085  -0.00001   0.00000  -0.00001  -0.00001   2.58084
   R14        2.75960   0.00000   0.00000   0.00000   0.00000   2.75960
   R15        2.75567   0.00000   0.00000   0.00001   0.00001   2.75568
   R16        2.05897   0.00000   0.00000  -0.00001  -0.00001   2.05896
   R17        2.06983   0.00000   0.00000   0.00000   0.00000   2.06983
   R18        2.07609   0.00000   0.00000  -0.00001  -0.00001   2.07608
   R19        2.07265   0.00000   0.00000   0.00000   0.00000   2.07265
   R20        2.05630   0.00000   0.00000  -0.00001  -0.00001   2.05629
   R21        2.07270   0.00000   0.00000   0.00000   0.00000   2.07270
   R22        2.06483   0.00000   0.00000   0.00000   0.00000   2.06483
   R23        2.06514   0.00000   0.00000   0.00001   0.00001   2.06515
   R24        2.89421   0.00000   0.00000   0.00000   0.00000   2.89421
   R25        2.08673   0.00000   0.00000   0.00000   0.00000   2.08673
   R26        2.07338   0.00000   0.00000  -0.00001  -0.00001   2.07337
   R27        2.67623   0.00000   0.00000   0.00001   0.00001   2.67624
   R28        2.66903  -0.00001   0.00000  -0.00002  -0.00002   2.66901
   R29        2.06483   0.00000   0.00000   0.00000   0.00000   2.06484
   R30        2.07962   0.00000   0.00000   0.00001   0.00001   2.07963
   R31        2.08198   0.00000   0.00000   0.00001   0.00001   2.08200
    A1        1.87166   0.00000   0.00000  -0.00002  -0.00002   1.87164
    A2        1.96926   0.00000   0.00000   0.00002   0.00002   1.96928
    A3        1.93569   0.00000   0.00000   0.00000   0.00000   1.93570
    A4        1.91036   0.00000   0.00000   0.00000   0.00000   1.91036
    A5        1.89707   0.00000   0.00000   0.00000   0.00000   1.89707
    A6        1.87885   0.00000   0.00000  -0.00001  -0.00001   1.87885
    A7        2.09931  -0.00001   0.00000  -0.00002  -0.00002   2.09929
    A8        2.05610   0.00000   0.00000   0.00002   0.00002   2.05611
    A9        2.12761   0.00000   0.00000   0.00001   0.00001   2.12761
   A10        2.05556  -0.00001   0.00000  -0.00001  -0.00001   2.05554
   A11        2.15348   0.00002   0.00000  -0.00003  -0.00003   2.15345
   A12        2.06968   0.00000   0.00000   0.00001   0.00001   2.06969
   A13        1.98041   0.00003   0.00000   0.00011   0.00011   1.98052
   A14        1.88936   0.00001   0.00000  -0.00003  -0.00003   1.88934
   A15        1.87581  -0.00002   0.00000  -0.00006  -0.00006   1.87575
   A16        1.82632   0.00020   0.00000   0.00012   0.00012   1.82644
   A17        1.98681  -0.00021   0.00000  -0.00011  -0.00011   1.98670
   A18        1.90176  -0.00001   0.00000  -0.00003  -0.00003   1.90172
   A19        2.06444   0.00001   0.00000   0.00003   0.00003   2.06447
   A20        2.08142  -0.00001   0.00000  -0.00003  -0.00003   2.08138
   A21        2.13723   0.00000   0.00000   0.00000   0.00000   2.13723
   A22        2.19986   0.00000   0.00000   0.00000   0.00000   2.19986
   A23        2.06738   0.00000   0.00000   0.00001   0.00001   2.06739
   A24        2.01550   0.00000   0.00000   0.00000   0.00000   2.01549
   A25        1.94805   0.00000   0.00000  -0.00001  -0.00001   1.94804
   A26        1.89462   0.00000   0.00000   0.00000   0.00000   1.89462
   A27        1.94251   0.00000   0.00000  -0.00002  -0.00002   1.94249
   A28        1.87666   0.00000   0.00000  -0.00003  -0.00003   1.87663
   A29        1.91968   0.00000   0.00000   0.00004   0.00004   1.91972
   A30        1.87965   0.00000   0.00000   0.00001   0.00001   1.87966
   A31        1.92791   0.00000   0.00000   0.00000   0.00000   1.92790
   A32        1.89660   0.00000   0.00000  -0.00001  -0.00001   1.89659
   A33        1.92299   0.00000   0.00000   0.00000   0.00000   1.92300
   A34        1.91160   0.00000   0.00000   0.00002   0.00002   1.91162
   A35        1.88894   0.00000   0.00000   0.00000   0.00000   1.88894
   A36        1.91584   0.00000   0.00000  -0.00001  -0.00001   1.91583
   A37        1.91915   0.00000   0.00000  -0.00004  -0.00004   1.91910
   A38        1.88797   0.00000   0.00000   0.00001   0.00001   1.88798
   A39        1.99573   0.00001   0.00000   0.00004   0.00004   1.99577
   A40        1.86858   0.00000   0.00000  -0.00001  -0.00001   1.86857
   A41        1.89327  -0.00001   0.00000  -0.00008  -0.00008   1.89319
   A42        1.89495   0.00000   0.00000   0.00008   0.00008   1.89503
   A43        1.92548   0.00000   0.00000  -0.00004  -0.00004   1.92544
   A44        1.91685   0.00000   0.00000   0.00003   0.00003   1.91688
   A45        1.85629   0.00000   0.00000  -0.00002  -0.00002   1.85627
   A46        1.88523   0.00000   0.00000   0.00003   0.00003   1.88526
   A47        1.93339   0.00000   0.00000  -0.00002  -0.00002   1.93338
   A48        1.94698   0.00000   0.00000   0.00001   0.00001   1.94700
   A49        1.96993  -0.00001   0.00000  -0.00003  -0.00003   1.96991
   A50        1.87237   0.00000   0.00000  -0.00001  -0.00001   1.87236
   A51        1.95074   0.00000   0.00000   0.00002   0.00002   1.95076
   A52        1.95164   0.00000   0.00000   0.00002   0.00002   1.95166
   A53        1.90168   0.00000   0.00000  -0.00001  -0.00001   1.90167
   A54        1.89790   0.00000   0.00000  -0.00001  -0.00001   1.89790
   A55        1.88844   0.00000   0.00000  -0.00001  -0.00001   1.88843
    D1       -0.14518   0.00000   0.00000   0.00004   0.00004  -0.14514
    D2        3.01589   0.00000   0.00000  -0.00011  -0.00011   3.01578
    D3       -2.25001   0.00000   0.00000   0.00004   0.00004  -2.24996
    D4        0.91107   0.00000   0.00000  -0.00011  -0.00011   0.91096
    D5        1.92373   0.00000   0.00000   0.00003   0.00003   1.92376
    D6       -1.19839   0.00000   0.00000  -0.00011  -0.00011  -1.19850
    D7        3.03462   0.00007   0.00000  -0.00010  -0.00010   3.03452
    D8       -0.00389  -0.00007   0.00000   0.00020   0.00020  -0.00369
    D9       -0.08715   0.00007   0.00000  -0.00025  -0.00025  -0.08740
   D10       -3.12566  -0.00007   0.00000   0.00005   0.00005  -3.12561
   D11        1.89665  -0.00044   0.00000   0.00000   0.00000   1.89665
   D12       -2.36755  -0.00016   0.00000   0.00019   0.00019  -2.36736
   D13       -0.31587  -0.00018   0.00000   0.00011   0.00011  -0.31576
   D14       -1.34295  -0.00031   0.00000  -0.00029  -0.00029  -1.34324
   D15        0.67604  -0.00003   0.00000  -0.00010  -0.00010   0.67594
   D16        2.72772  -0.00004   0.00000  -0.00018  -0.00018   2.72754
   D17        0.55124   0.00007   0.00000   0.00006   0.00006   0.55130
   D18        2.58628   0.00007   0.00000   0.00003   0.00003   2.58631
   D19       -1.58336   0.00008   0.00000   0.00016   0.00016  -1.58320
   D20       -2.48649  -0.00007   0.00000   0.00036   0.00036  -2.48612
   D21       -0.45144  -0.00007   0.00000   0.00033   0.00033  -0.45111
   D22        1.66210  -0.00006   0.00000   0.00047   0.00047   1.66256
   D23        1.33240   0.00011   0.00000   0.00028   0.00028   1.33268
   D24       -1.82395   0.00011   0.00000   0.00000   0.00000  -1.82395
   D25       -0.72354  -0.00005   0.00000   0.00018   0.00018  -0.72336
   D26        2.40330  -0.00005   0.00000  -0.00010  -0.00010   2.40320
   D27       -2.79794  -0.00006   0.00000   0.00020   0.00020  -2.79774
   D28        0.32889  -0.00006   0.00000  -0.00008  -0.00008   0.32881
   D29        0.04807   0.00000   0.00000   0.00018   0.00018   0.04825
   D30       -3.05975   0.00000   0.00000  -0.00001  -0.00001  -3.05976
   D31       -3.10892   0.00000   0.00000  -0.00011  -0.00011  -3.10903
   D32        0.06644   0.00000   0.00000  -0.00030  -0.00030   0.06614
   D33        0.38374   0.00000   0.00000  -0.00018  -0.00018   0.38356
   D34        2.44909   0.00000   0.00000  -0.00021  -0.00021   2.44887
   D35       -1.76837   0.00000   0.00000  -0.00021  -0.00021  -1.76858
   D36       -2.79074   0.00000   0.00000   0.00000   0.00000  -2.79073
   D37       -0.72539   0.00000   0.00000  -0.00003  -0.00003  -0.72542
   D38        1.34034   0.00000   0.00000  -0.00003  -0.00003   1.34031
   D39       -2.07332   0.00000   0.00000   0.00018   0.00018  -2.07314
   D40        0.02410   0.00000   0.00000   0.00020   0.00020   0.02430
   D41        2.12374   0.00000   0.00000   0.00018   0.00018   2.12391
   D42        1.09852   0.00000   0.00000   0.00001   0.00001   1.09853
   D43       -3.08725   0.00000   0.00000   0.00003   0.00003  -3.08722
   D44       -0.98761   0.00000   0.00000   0.00001   0.00001  -0.98761
   D45        0.91608   0.00000   0.00000  -0.00041  -0.00041   0.91567
   D46       -1.16007   0.00000   0.00000  -0.00044  -0.00044  -1.16052
   D47        3.01383   0.00000   0.00000  -0.00047  -0.00047   3.01337
   D48       -1.23257   0.00000   0.00000  -0.00033  -0.00033  -1.23290
   D49        2.97446   0.00000   0.00000  -0.00036  -0.00036   2.97410
   D50        0.86518   0.00000   0.00000  -0.00038  -0.00038   0.86480
   D51        3.02576   0.00000   0.00000  -0.00031  -0.00031   3.02545
   D52        0.94960   0.00000   0.00000  -0.00034  -0.00034   0.94926
   D53       -1.15967   0.00000   0.00000  -0.00037  -0.00037  -1.16004
   D54        3.03087   0.00000   0.00000   0.00009   0.00009   3.03096
   D55       -1.15969   0.00000   0.00000   0.00002   0.00002  -1.15967
   D56        0.94107   0.00000   0.00000   0.00005   0.00005   0.94113
   D57       -3.12897   0.00000   0.00000  -0.00015  -0.00015  -3.12913
   D58       -1.04542   0.00000   0.00000  -0.00016  -0.00016  -1.04558
   D59        1.07476   0.00000   0.00000  -0.00015  -0.00015   1.07461
         Item               Value     Threshold  Converged?
 Maximum Force            0.000022     0.000450     YES
 RMS     Force            0.000004     0.000300     YES
 Maximum Displacement     0.002702     0.001800     NO 
 RMS     Displacement     0.000658     0.001200     YES
 Predicted change in Energy=-1.708032D-08
 GradGradGradGradGradGradGradGradGradGradGradGradGradGradGradGradGradGrad

                          Input orientation:                          
 ---------------------------------------------------------------------
 Center     Atomic      Atomic             Coordinates (Angstroms)
 Number     Number       Type             X           Y           Z
 ---------------------------------------------------------------------
      1          6           0        1.259109    2.880836   -0.676788
      2          6           0        0.036552    2.164038   -0.123749
      3          8           0       -1.089606    2.628831   -0.302842
      4          7           0        0.240294    1.007049    0.592921
      5          6           0       -0.922144    0.391258    1.241661
      6          6           0       -1.375590   -0.919038    0.572142
      7          8           0       -0.715791   -1.940487    0.779936
      8          7           0       -2.494799   -0.916079   -0.210517
      9          6           0       -3.310311    0.249852   -0.539257
     10          6           0       -2.967623   -2.185032   -0.751505
     11          1           0        0.899400    3.687801   -1.313960
     12          1           0        1.910837    2.222103   -1.256569
     13          1           0        1.858284    3.312745    0.132221
     14          1           0       -0.633540    0.098433    2.255488
     15          1           0       -1.701569    1.147084    1.300608
     16          1           0       -2.749864    1.177065   -0.423905
     17          1           0       -3.615220    0.177189   -1.588758
     18          1           0       -4.222573    0.283861    0.071953
     19          1           0       -2.954508   -2.163048   -1.848007
     20          1           0       -2.315246   -2.979980   -0.395811
     21          1           0       -3.997046   -2.375696   -0.424455
     22          6           0        1.566871    0.435869    0.842265
     23          1           0        2.309695    1.234221    0.911211
     24          1           0        1.544859   -0.066277    1.812648
     25          6           0        2.031017   -0.568698   -0.216533
     26          1           0        1.950369   -0.127183   -1.225458
     27          1           0        1.395476   -1.462526   -0.185453
     28          8           0        3.378632   -0.877551    0.090361
     29          6           0        3.904330   -1.906960   -0.721284
     30          1           0        4.934779   -2.078591   -0.400921
     31          1           0        3.335637   -2.842867   -0.612864
     32          1           0        3.906856   -1.627342   -1.786952
 ---------------------------------------------------------------------
                    Distance matrix (angstroms):
                    1          2          3          4          5
     1  C    0.000000
     2  C    1.521282   0.000000
     3  O    2.391611   1.231397   0.000000
     4  N    2.482182   1.376136   2.280614   0.000000
     5  C    3.825743   2.434377   2.724017   1.466739   0.000000
     6  C    4.789626   3.461758   3.665346   2.514224   1.539723
     7  O    5.409938   4.269636   4.710713   3.104358   2.385960
     8  N    5.359646   3.987780   3.814378   3.438701   2.508226
     9  C    5.274523   3.877917   3.262968   3.802889   2.982450
    10  C    6.598020   5.322927   5.186668   4.720974   3.846293
    11  H    1.089299   2.117301   2.469802   3.355153   4.551529
    12  H    1.093080   2.190798   3.174536   2.772667   4.197490
    13  H    1.095468   2.168815   3.057298   2.854185   4.182908
    14  H    4.463422   3.221260   3.627115   2.086456   1.094022
    15  H    3.960001   2.466587   2.267405   2.071536   1.087314
    16  H    4.363330   2.971249   2.208787   3.162892   2.594641
    17  H    5.648051   4.407863   3.747380   4.507037   3.912769
    18  H    6.111770   4.659775   3.931264   4.550998   3.503225
    19  H    6.675859   5.535627   5.369124   5.120000   4.494556
    20  H    6.870526   5.662675   5.741916   4.837848   3.998411
    21  H    7.437874   6.080256   5.789066   5.516617   4.459485
    22  C    2.894841   2.502324   3.630044   1.465682   2.521250
    23  H    2.517302   2.665123   3.869639   2.106024   3.356272
    24  H    3.868387   3.316463   4.321957   2.083663   2.573221
[...]
   D17        0.45400  -0.00050  -0.01217  -0.03710  -0.04927   0.40473
   D18        2.48685  -0.00048  -0.01210  -0.03634  -0.04844   2.43841
   D19       -1.67640  -0.00054  -0.01180  -0.03746  -0.04926  -1.72566
   D20       -2.59184   0.00040  -0.00744  -0.02431  -0.03174  -2.62359
   D21       -0.55899   0.00042  -0.00737  -0.02354  -0.03091  -0.58990
   D22        1.56094   0.00036  -0.00707  -0.02466  -0.03173   1.52921
   D23        2.46959  -0.00218  -0.00372   0.00744   0.00372   2.47331
   D24       -0.60222  -0.00341   0.00000   0.00000   0.00000  -0.60222
   D25        0.33193   0.00033  -0.00544   0.01030   0.00486   0.33678
   D26       -2.73989  -0.00090  -0.00172   0.00286   0.00114  -2.73875
   D27       -1.66596   0.00032  -0.00590   0.01077   0.00487  -1.66110
   D28        1.54541  -0.00091  -0.00218   0.00333   0.00114   1.54655
   D29       -0.50005   0.00080  -0.00404   0.02438   0.02034  -0.47971
   D30        3.02492   0.00070  -0.00343   0.00714   0.00371   3.02864
   D31        2.71499  -0.00052  -0.00017   0.01656   0.01640   2.73139
   D32       -0.04322  -0.00062   0.00044  -0.00068  -0.00023  -0.04345
   D33        0.00834   0.00004   0.00594  -0.04234  -0.03641  -0.02807
   D34        2.14878  -0.00003   0.00586  -0.04195  -0.03610   2.11268
   D35       -2.06209   0.00002   0.00583  -0.04101  -0.03519  -2.09728
   D36        2.77429   0.00000   0.00535  -0.02586  -0.02050   2.75379
   D37       -1.36845  -0.00007   0.00527  -0.02548  -0.02020  -1.38864
   D38        0.70386  -0.00002   0.00524  -0.02453  -0.01928   0.68458
   D39       -2.59202   0.00005  -0.00023   0.01123   0.01100  -2.58101
   D40       -0.48928  -0.00001  -0.00031   0.01045   0.01013  -0.47915
   D41        1.60164   0.00000  -0.00019   0.01050   0.01031   1.61195
   D42        0.89470   0.00002   0.00035  -0.00436  -0.00401   0.89069
   D43        2.99743  -0.00004   0.00026  -0.00514  -0.00488   2.99255
   D44       -1.19483  -0.00003   0.00039  -0.00510  -0.00470  -1.19953
   D45        0.96532   0.00008  -0.00083   0.01539   0.01456   0.97989
   D46       -1.09979   0.00013  -0.00105   0.01494   0.01389  -1.08589
   D47        3.07016   0.00007  -0.00089   0.01493   0.01404   3.08420
   D48       -1.18360  -0.00002  -0.00081   0.01539   0.01458  -1.16902
   D49        3.03448   0.00003  -0.00103   0.01494   0.01391   3.04839
   D50        0.92124  -0.00003  -0.00087   0.01493   0.01406   0.93530
   D51        3.08254   0.00001  -0.00053   0.01557   0.01504   3.09758
   D52        1.01743   0.00005  -0.00075   0.01511   0.01437   1.03179
   D53       -1.09581  -0.00001  -0.00059   0.01510   0.01451  -1.08130
   D54        3.07913  -0.00005   0.00136   0.00203   0.00340   3.08252
   D55       -1.11002   0.00002   0.00133   0.00133   0.00266  -1.10736
   D56        0.97025   0.00009   0.00143   0.00302   0.00445   0.97470
   D57       -3.13943   0.00000   0.00000   0.00227   0.00227  -3.13716
   D58       -1.05774   0.00000  -0.00001   0.00248   0.00247  -1.05527
   D59        1.06288   0.00003   0.00005   0.00234   0.00239   1.06527
         Item               Value     Threshold  Converged?
 Maximum Force            0.000404     0.000450     YES
 RMS     Force            0.000100     0.000300     YES
 Maximum Displacement     0.103849     0.001800     NO 
 RMS     Displacement     0.030108     0.001200     NO 
 Predicted change in Energy=-1.596722D-05
 GradGradGradGradGradGradGradGradGradGradGradGradGradGradGradGradGradGrad

                          Input orientation:                          
 ---------------------------------------------------------------------
 Center     Atomic      Atomic             Coordinates (Angstroms)
 Number     Number       Type             X           Y           Z
 ---------------------------------------------------------------------
      1          6           0        0.919317    3.055357   -0.529457
      2          6           0       -0.183503    2.331729    0.229391
      3          8           0       -1.308119    2.822984    0.313680
      4          7           0        0.119687    1.121928    0.814755
      5          6           0       -0.887053    0.458498    1.643320
      6          6           0       -1.597580   -0.820988    1.145335
      7          8           0       -1.819290   -1.689805    1.985074
      8          7           0       -1.891370   -1.006145   -0.182733
      9          6           0       -2.127369    0.066435   -1.143445
     10          6           0       -2.430122   -2.306317   -0.568769
     11          1           0        0.462449    3.917495   -1.013805
     12          1           0        1.393692    2.424340   -1.286554
     13          1           0        1.703035    3.409121    0.148824
     14          1           0       -0.429740    0.146086    2.584891
     15          1           0       -1.651655    1.207675    1.870009
     16          1           0       -2.070360    1.045875   -0.673904
     17          1           0       -1.415638    0.019665   -1.977792
     18          1           0       -3.137190   -0.040129   -1.558945
     19          1           0       -2.096822   -2.544163   -1.584164
     20          1           0       -2.076240   -3.063671    0.128511
     21          1           0       -3.528390   -2.308486   -0.553987
     22          6           0        1.451762    0.517413    0.771005
     23          1           0        2.208871    1.284715    0.604380
     24          1           0        1.665275    0.072400    1.748256
     25          6           0        1.613779   -0.559457   -0.305796
     26          1           0        1.359453   -0.145775   -1.297197
     27          1           0        0.930885   -1.401742   -0.119851
     28          8           0        2.962989   -0.976095   -0.260089
     29          6           0        3.246601   -2.031767   -1.155934
     30          1           0        4.304021   -2.279624   -1.040020
     31          1           0        2.644098   -2.926174   -0.935323
     32          1           0        3.062092   -1.740496   -2.201838
 ---------------------------------------------------------------------
                    Distance matrix (angstroms):
                    1          2          3          4          5
     1  C    0.000000
     2  C    1.521742   0.000000
     3  O    2.392979   1.230122   0.000000
     4  N    2.486857   1.377749   2.276686   0.000000
     5  C    3.837656   2.450137   2.745184   1.462937   0.000000
     6  C    4.915867   3.574659   3.748863   2.614041   1.545937
     7  O    6.028217   4.683050   4.839434   3.610419   2.366658
     8  N    4.951361   3.772010   3.904976   3.093223   2.547214
     9  C    4.311953   3.285552   3.223810   3.161942   3.075412
    10  C    6.322011   5.214961   5.324222   4.490938   3.862460
    11  H    1.089314   2.115998   2.468822   3.358022   4.565757
    12  H    1.093805   2.189568   3.165352   2.781163   4.201249
    13  H    1.095184   2.174003   3.072098   2.860368   4.200982
    14  H    4.470231   3.222739   3.618802   2.094640   1.092379
    15  H    3.972564   2.471962   2.269229   2.063630   1.094199
    16  H    3.605142   2.455523   2.171279   2.649188   2.667349
    17  H    4.094523   3.425704   3.622293   3.372021   3.685705
    18  H    5.205491   4.189048   3.879387   4.194292   3.945408
    19  H    6.447024   5.542932   5.747185   4.909985   4.571232
    20  H    6.844617   5.718651   5.939446   4.776219   4.014285
    21  H    6.968035   5.773521   5.658130   5.191307   4.411465
    22  C    2.901009   2.501834   3.625155   1.463480   2.496890
    23  H    2.466517   2.638239   3.849676   2.106050   3.368498
    24  H    3.826546   3.290820   4.297068   2.088486   2.583498
    25  C    3.687707   3.446100   4.512444   2.512967   3.330082
    26  H    3.321203   3.293813   4.303998   2.757613   3.749476
    27  H    4.475895   3.911857   4.800979   2.810772   3.142317
    28  O    4.527887   4.591481   5.744962   3.693421   4.528117
    29  C    5.629170   5.720562   6.817174   4.858704   5.578919
    30  H    6.338684   6.558495   7.704884   5.702578   6.453284
    31  H    6.238454   6.082551   7.087514   5.081589   5.529414
    32  H    5.512580   5.746979   6.800877   5.094217   5.934354
                    6          7          8          9         10
     6  C    0.000000
     7  O    1.228479   0.000000
     8  N    1.372720   2.274198   0.000000
     9  C    2.511317   3.600962   1.459140   0.000000
    10  C    2.416088   2.697279   1.459357   2.460053   0.000000
    11  H    5.599895   6.755844   5.520270   4.642697   6.877562
    12  H    5.039241   6.160601   4.876298   4.240056   6.125021
    13  H    5.457189   6.463562   5.703003   5.245523   7.089721
    14  H    2.090790   2.379312   3.335227   4.097411   4.467815
    15  H    2.154889   2.904606   3.028566   3.257244   4.347618
    16  H    2.649212   3.823238   2.117563   1.087668   3.373080
    17  H    3.239401   4.334689   2.121519   1.097671   2.902536
    18  H    3.208313   4.125332   2.092657   1.097148   2.572159
    19  H    3.266304   3.680545   2.090865   2.647714   1.094846
    20  H    2.508521   2.323867   2.089130   3.379060   1.088585
    21  H    2.971258   3.122598   2.124561   2.819676   1.098370
    22  C    3.351109   4.128627   3.795705   4.083954   4.983720
    23  H    4.383571   5.194244   4.762307   4.831364   5.982645
    24  H    3.436260   3.911988   4.188282   4.769290   5.272492
    25  C    3.533696   4.279221   3.535639   3.884532   4.412914
    26  H    3.894345   4.823042   3.542614   3.496655   4.422603
    27  H    2.886366   3.475220   2.850539   3.543474   3.509437
    28  O    4.774732   5.331072   4.855069   5.270573   5.563310
    29  C    5.497993   5.970438   5.328956   5.769070   5.713609
    30  H    6.460054   6.855219   6.382755   6.846713   6.750665
    31  H    5.172309   5.475322   4.982306   5.636126   5.125064
    32  H    5.810474   6.431228   5.399337   5.596043   5.757732
                   11         12         13         14         15
    11  H    0.000000
    12  H    1.780763   0.000000
    13  H    1.774600   1.767992   0.000000
    14  H    5.288680   4.848034   4.596797   0.000000
    15  H    4.486530   4.551736   4.366095   1.769492   0.000000
    16  H    3.844068   3.778249   4.527728   3.757791   2.583212
    17  H    4.432783   3.761996   5.073167   4.669694   4.033936
    18  H    5.377488   5.164950   6.183978   4.953417   3.939740
    19  H    6.973393   6.079333   7.272121   5.234273   5.119157
    20  H    7.515751   6.645383   7.495357   4.364322   4.632223
    21  H    7.409526   6.867547   7.781567   5.047683   4.664899
    22  C    3.965456   2.805938   2.968538   2.639719   3.363847
    23  H    3.549654   2.353485   2.230807   3.490153   4.063424
    24  H    4.884724   3.849084   3.700447   2.257095   3.507948
    25  C    4.676531   3.148551   3.995530   3.609686   4.303480
    26  H    4.170742   2.570366   3.853091   4.284507   4.574909
    27  H    5.414136   4.026697   4.879836   3.400397   4.175896
    28  O    5.546892   3.883205   4.580918   4.567692   5.531827
    29  C    6.570040   4.827756   5.804158   5.679111   6.606303
    30  H    7.291272   5.536974   6.367126   6.436812   7.489967
    31  H    7.183422   5.505895   6.495916   5.592778   6.588785
    32  H    6.338961   4.578991   5.821614   6.218107   6.891376
                   16         17         18         19         20
    16  H    0.000000
    17  H    1.783786   0.000000
    18  H    1.760918   1.772781   0.000000
    19  H    3.703734   2.681822   2.711676   0.000000
    20  H    4.187156   3.792079   3.621454   1.789851   0.000000
    21  H    3.659504   3.451265   2.511657   1.779381   1.773372
    22  C    3.843484   4.003201   5.176679   5.245238   5.067915
    23  H    4.472457   4.626557   5.917395   6.163524   6.123487
    24  H    4.557354   4.835105   5.832145   5.666110   5.143682
    25  C    4.035526   3.508322   4.940830   4.397936   4.480620
    26  H    3.684038   2.862116   4.505493   4.216687   4.727657
    27  H    3.912195   3.313383   4.524844   3.551950   3.444778
    28  O    5.440056   4.807746   6.306762   5.460193   5.468347
    29  C    6.162330   5.159486   6.699391   5.384989   5.572008
    30  H    7.199008   6.235435   7.788213   6.429376   6.533600
    31  H    6.170220   5.123101   6.491645   4.800338   4.840686
    32  H    6.036597   4.816475   6.460314   5.257547   5.795151
                   21         22         23         24         25
    21  H    0.000000
    22  C    5.877349   0.000000
    23  H    6.867975   1.090747   0.000000
    24  H    6.159797   1.094826   1.753184   0.000000
    25  C    5.437151   1.531470   2.140917   2.149657   0.000000
    26  H    5.396359   2.173890   2.526620   3.068536   1.103944
    27  H    4.571192   2.179012   3.061831   2.490431   1.100165
    28  O    6.633223   2.361679   2.535204   2.610910   1.412814
    29  C    6.807307   3.665087   3.895464   3.919494   2.357231
    30  H    7.847531   4.386184   4.449519   4.502164   3.276502
    31  H    6.215027   4.023868   4.504630   4.141393   2.656917
    32  H    6.817073   4.065600   4.213637   4.565187   2.662224
                   26         27         28         29         30
    26  H    0.000000
    27  H    1.774054   0.000000
    28  O    2.082392   2.080935   0.000000
    29  C    2.671751   2.613990   1.413301   0.000000
    30  H    3.645537   3.604919   2.026289   1.092248   0.000000
    31  H    3.084134   2.433924   2.088167   1.100747   1.784471
    32  H    2.502097   2.998578   2.089143   1.101270   1.784060
                   31         32
    31  H    0.000000
    32  H    1.784548   0.000000
 Stoichiometry    C9H18N2O3
 Framework group  C1[X(C9H18N2O3)]
 Deg. of freedom    90
 Full point group                 C1      NOp   1
 Largest Abelian subgroup         C1      NOp   1
 Largest concise Abelian subgroup C1      NOp   1
                         Standard orientation:                         
 ---------------------------------------------------------------------
 Center     Atomic      Atomic             Coordinates (Angstroms)
 Number     Number       Type             X           Y           Z
 ---------------------------------------------------------------------
      1          6           0        1.138806    2.973443   -0.684062
      2          6           0       -0.090600    2.301132   -0.090548
      3          8           0       -1.207899    2.789291   -0.253467
      4          7           0        0.090374    1.141028    0.630284
      5          6           0       -1.057128    0.534678    1.305386
      6          6           0       -1.671885   -0.783709    0.782079
      7          8           0       -2.051489   -1.588408    1.629145
      8          7           0       -1.715618   -1.070412   -0.559655
      9          6           0       -1.761927   -0.074912   -1.625453
     10          6           0       -2.182483   -2.399772   -0.939871
     11          1           0        0.785675    3.793386   -1.308238
     12          1           0        1.740931    2.290628   -1.290379
     13          1           0        1.785613    3.382854    0.099168
     14          1           0       -0.784511    0.297310    2.336224
     15          1           0       -1.845273    1.293312    1.329316
     16          1           0       -1.786154    0.937478   -1.228588
     17          1           0       -0.908180   -0.179272   -2.307440
     18          1           0       -2.677915   -0.219665   -2.211752
     19          1           0       -1.668356   -2.710994   -1.855022
     20          1           0       -1.969301   -3.099938   -0.134057
     21          1           0       -3.264437   -2.408670   -1.128852
     22          6           0        1.403225    0.544469    0.879914
     23          1           0        2.183420    1.302439    0.799257
     24          1           0        1.428738    0.175823    1.910493
     25          6           0        1.754592   -0.609222   -0.063981
     26          1           0        1.691380   -0.273175   -1.113632
     27          1           0        1.043219   -1.439977    0.055011
     28          8           0        3.069001   -1.011586    0.262327
     29          6           0        3.506447   -2.129648   -0.483324
     30          1           0        4.522289   -2.360514   -0.155038
     31          1           0        2.867279   -3.009192   -0.311538
     32          1           0        3.521094   -1.919264   -1.564213
 ---------------------------------------------------------------------
 Rotational constants (GHZ):      0.6443888      0.5511529      0.3753396
 Standard basis: 6-31G(d,p) (6D, 7F)
 There are   300 symmetry adapted basis functions of A   symmetry.
 Integral buffers will be    131072 words long.
 Raffenetti 2 integral format.
 Two-electron integral symmetry is turned on.
   300 basis functions,   518 primitive gaussians,   300 cartesian basis functions
    55 alpha electrons       55 beta electrons
       nuclear repulsion energy       988.6591211354 Hartrees.
 NAtoms=   32 NActive=   32 NUniq=   32 SFac= 1.00D+00 NAtFMM=   60 NAOKFM=F Big=F
 One-electron integrals computed using PRISM.
 NBasis=   300 RedAO= T  NBF=   300
 NBsUse=   300 1.00D-06 NBFU=   300
 Initial guess read from the read-write file.
 B after Tr=     0.000000    0.000000    0.000000
         Rot=    1.000000    0.000000    0.000000    0.000000 Ang=   0.00 deg.
 Initial guess orbital symmetries:
       Occupied  (A) (A) (A) (A) (A) (A) (A) (A) (A) (A) (A) (A)
                 (A) (A) (A) (A) (A) (A) (A) (A) (A) (A) (A) (A)
                 (A) (A) (A) (A) (A) (A) (A) (A) (A) (A) (A) (A)
                 (A) (A) (A) (A) (A) (A) (A) (A) (A) (A) (A) (A)
                 (A) (A) (A) (A) (A) (A) (A)
       Virtual   (A) (A) (A) (A) (A) (A) (A) (A) (A) (A) (A) (A)
                 (A) (A) (A) (A) (A) (A) (A) (A) (A) (A) (A) (A)
                 (A) (A) (A) (A) (A) (A) (A) (A) (A) (A) (A) (A)
                 (A) (A) (A) (A) (A) (A) (A) (A) (A) (A) (A) (A)
                 (A) (A) (A) (A) (A) (A) (A) (A) (A) (A) (A) (A)
                 (A) (A) (A) (A) (A) (A) (A) (A) (A) (A) (A) (A)
                 (A) (A) (A) (A) (A) (A) (A) (A) (A) (A) (A) (A)
                 (A) (A) (A) (A) (A) (A) (A) (A) (A) (A) (A) (A)
                 (A) (A) (A) (A) (A) (A) (A) (A) (A) (A) (A) (A)
                 (A) (A) (A) (A) (A) (A) (A) (A) (A) (A) (A) (A)
                 (A) (A) (A) (A) (A) (A) (A) (A) (A) (A) (A) (A)
                 (A) (A) (A) (A) (A) (A) (A) (A) (A) (A) (A) (A)
                 (A) (A) (A) (A) (A) (A) (A) (A) (A) (A) (A) (A)
                 (A) (A) (A) (A) (A) (A) (A) (A) (A) (A) (A) (A)
                 (A) (A) (A) (A) (A) (A) (A) (A) (A) (A) (A) (A)
                 (A) (A) (A) (A) (A) (A) (A) (A) (A) (A) (A) (A)
                 (A) (A) (A) (A) (A) (A) (A) (A) (A) (A) (A) (A)
                 (A) (A) (A) (A) (A) (A) (A) (A) (A) (A) (A) (A)
                 (A) (A) (A) (A) (A) (A) (A) (A) (A) (A) (A) (A)
                 (A) (A) (A) (A) (A) (A) (A) (A) (A) (A) (A) (A)
                 (A) (A) (A) (A) (A)
 Harris functional with IExCor=  402 diagonalized for initial guess.
 ExpMin= 1.61D-01 ExpMax= 5.48D+03 ExpMxC= 8.25D+02 IAcc=1 IRadAn=         1 AccDes= 0.00D+00
 HarFok:  IExCor=  402 AccDes= 0.00D+00 IRadAn=         1 IDoV= 1
 ScaDFX=  1.000000  1.000000  1.000000  1.000000
 FoFCou: FMM=F IPFlag=           0 FMFlag=      100000 FMFlg1=           0
         NFxFlg=           0 DoJE=T BraDBF=F KetDBF=T FulRan=T
         Omega=  0.000000  0.000000  1.000000  0.000000  0.000000 ICntrl=     500 IOpCl=  0
         NMat0=    1 NMatS0=    1 NMatT0=    0 NMatD0=    1 NMtDS0=    0 NMtDT0=    0
         I1Cent=           4 NGrid=           0.
 Petite list used in FoFCou.
