 Entering Gaussian System, Link 0=/data/opt/apps/g09-C01/g09
 Initial command:
 /data/opt/apps/g09-C01/l1.exe /tmp/g09-tuu61186-1098648c21e64fea8x/Gau-1098715.inp -scrdir=/tmp/g09-tuu61186-1098648c21e64fea8x/
 Entering Link 1 = /data/opt/apps/g09-C01/l1.exe PID=   1098718.
  
 Copyright (c) 1988,1990,1992,1993,1995,1998,2003,2009,2011,
            Gaussian, Inc.  All Rights Reserved.
  
 This is part of the Gaussian(R) 09 program.  It is based on
 the Gaussian(R) 03 system (copyright 2003, Gaussian, Inc.),
 the Gaussian(R) 98 system (copyright 1998, Gaussian, Inc.),
 the Gaussian(R) 94 system (copyright 1995, Gaussian, Inc.),
 the Gaussian 92(TM) system (copyright 1992, Gaussian, Inc.),
 the Gaussian 90(TM) system (copyright 1990, Gaussian, Inc.),
 the Gaussian 88(TM) system (copyright 1988, Gaussian, Inc.),
 the Gaussian 86(TM) system (copyright 1986, Carnegie Mellon
 University), and the Gaussian 82(TM) system (copyright 1983,
 Carnegie Mellon University). Gaussian is a federally registered
 trademark of Gaussian, Inc.
  
 This software contains proprietary and confidential information,
 including trade secrets, belonging to Gaussian, Inc.
  
 This software is provided under written license and may be
 used, copied, transmitted, or stored only in accord with that
 written license.
  
 The following legend is applicable only to US Government
 contracts under FAR:
  
                    RESTRICTED RIGHTS LEGEND
  
 Use, reproduction and disclosure by the US Government is
 subject to restrictions as set forth in subparagraphs (a)
 and (c) of the Commercial Computer Software - Restricted
 Rights clause in FAR 52.227-19.
  
 Gaussian, Inc.
 340 Quinnipiac St., Bldg. 40, Wallingford CT 06492
  
  
 ---------------------------------------------------------------
 Warning -- This program may not be used in any manner that
 competes with the business of Gaussian, Inc. or will provide
 assistance to any competitor of Gaussian, Inc.  The licensee
 of this program is prohibited from giving any competitor of
 Gaussian, Inc. access to this program.  By using this program,
 the user acknowledges that Gaussian, Inc. is engaged in the
 business of creating and licensing software in the field of
 computational chemistry and represents and warrants to the
 licensee that it is not a competitor of Gaussian, Inc. and that
 it will not use this program in any manner prohibited above.
 ---------------------------------------------------------------
  

 Cite this work as:
 Gaussian 09, Revision C.01,
 M. J. Frisch, G. W. Trucks, H. B. Schlegel, G. E. Scuseria, 
 M. A. Robb, J. R. Cheeseman, G. Scalmani, V. Barone, B. Mennucci, 
 G. A. Petersson, H. Nakatsuji, M. Caricato, X. Li, H. P. Hratchian, 
 A. F. Izmaylov, J. Bloino, G. Zheng, J. L. Sonnenberg, M. Hada, 
 M. Ehara, K. Toyota, R. Fukuda, J. Hasegawa, M. Ishida, T. Nakajima, 
 Y. Honda, O. Kitao, H. Nakai, T. Vreven, J. A. Montgomery, Jr., 
 J. E. Peralta, F. Ogliaro, M. Bearpark, J. J. Heyd, E. Brothers, 
 K. N. Kudin, V. N. Staroverov, T. Keith, R. Kobayashi, J. Normand, 
 K. Raghavachari, A. Rendell, J. C. Burant, S. S. Iyengar, J. Tomasi, 
 M. Cossi, N. Rega, J. M. Millam, M. Klene, J. E. Knox, J. B. Cross, 
 V. Bakken, C. Adamo, J. Jaramillo, R. Gomperts, R. E. Stratmann, 
 O. Yazyev, A. J. Austin, R. Cammi, C. Pomelli, J. W. Ochterski, 
 R. L. Martin, K. Morokuma, V. G. Zakrzewski, G. A. Voth, 
 P. Salvador, J. J. Dannenberg, S. Dapprich, A. D. Daniels, 
 O. Farkas, J. B. Foresman, J. V. Ortiz, J. Cioslowski, 
 and D. J. Fox, Gaussian, Inc., Wallingford CT, 2010.
 
 ******************************************
 Gaussian 09:  EM64L-G09RevC.01 23-Sep-2011
                24-Apr-2026 
 ******************************************
 %nprocshared=8
 Will use up to    8 processors via shared memory.
 %mem=14GB
 -----------------------------------
 # opt=modredundant b3lyp/6-31g(d,p)
 -----------------------------------
 1/14=-1,18=120,19=15,26=3,38=1/1,3;
 2/9=110,12=2,17=6,18=5,40=1/2;
 3/5=1,6=6,7=101,11=2,16=1,25=1,30=1,71=1,74=-5/1,2,3;
 4//1;
 5/5=2,38=5/2;
 6/7=2,8=2,9=2,10=2,28=1/1;
 7//1,2,3,16;
 1/14=-1,18=20,19=15/3(2);
 2/9=110/2;
 99//99;
 2/9=110/2;
 3/5=1,6=6,7=101,11=2,16=1,25=1,30=1,71=1,74=-5/1,2,3;
 4/5=5,16=3/1;
 5/5=2,38=5/2;
 7//1,2,3,16;
 1/14=-1,18=20,19=15/3(-5);
 2/9=110/2;
 6/7=2,8=2,9=2,10=2,19=2,28=1/1;
 99/9=1/99;
 ---------------
 QM dihedral opt
 ---------------
 Charge =  0 Multiplicity = 1
 Symbolic Z-Matrix:
 C                     1.37055   2.93026  -0.59936 
 C                     0.07099   2.3298   -0.0852 
 O                    -0.99668   2.92015  -0.24456 
 N                     0.13636   1.10774   0.54994 
 C                    -1.07143   0.61658   1.22283 
 C                    -1.43919  -0.81448   0.80615 
 O                    -1.05439  -1.75704   1.49894 
 N                    -2.16643  -0.99052  -0.34032 
 C                    -2.61416   0.0643   -1.24049 
 C                    -2.52175  -2.34455  -0.74294 
 H                     1.10875   3.7929   -1.21092 
 H                     1.95718   2.22575  -1.19484 
 H                     2.00001   3.2683    0.23108 
 H                    -0.88416   0.55478   2.29963 
 H                    -1.86143   1.34285   1.0425 
 H                    -2.25431   1.04652  -0.93836 
 H                    -2.24564  -0.13388  -2.25515 
 H                    -3.71091   0.08902  -1.28382 
 H                    -2.0626   -2.5931   -1.70841 
 H                    -2.16707  -3.037     0.01816 
 H                    -3.60961  -2.43573  -0.84842 
 C                     1.3921    0.4055    0.82948 
 H                     2.21572   1.1175    0.91469 
 H                     1.29626  -0.09781   1.79494 
 C                     1.76261  -0.63696  -0.22984 
 H                     1.733    -0.18725  -1.2377 
 H                     1.04375  -1.46867  -0.21188 
 O                     3.06512  -1.08869   0.08363 
 C                     3.49493  -2.1495   -0.74434 
 H                     4.50044  -2.42693  -0.4198 
 H                     2.83695  -3.02748  -0.65671 
 H                     3.53373  -1.85144  -1.80417 
 
 The following ModRedundant input section has been read:
 D       2       4       5       6 F                                           
 D       4       5       6       8 S  36 10.000                                

 GradGradGradGradGradGradGradGradGradGradGradGradGradGradGradGradGradGrad
 Berny optimization.
 Initialization pass.
                           ----------------------------
                           !    Initial Parameters    !
                           ! (Angstroms and Degrees)  !
 --------------------------                            --------------------------
 ! Name  Definition              Value          Derivative Info.                !
 --------------------------------------------------------------------------------
 ! R1    R(1,2)                  1.5211         estimate D2E/DX2                !
 ! R2    R(1,11)                 1.0893         estimate D2E/DX2                !
 ! R3    R(1,12)                 1.0932         estimate D2E/DX2                !
 ! R4    R(1,13)                 1.0955         estimate D2E/DX2                !
 ! R5    R(2,3)                  1.2304         estimate D2E/DX2                !
 ! R6    R(2,4)                  1.3788         estimate D2E/DX2                !
 ! R7    R(4,5)                  1.4672         estimate D2E/DX2                !
 ! R8    R(4,22)                 1.4657         estimate D2E/DX2                !
 ! R9    R(5,6)                  1.5352         estimate D2E/DX2                !
 ! R10   R(5,14)                 1.0947         estimate D2E/DX2                !
 ! R11   R(5,15)                 1.0882         estimate D2E/DX2                !
 ! R12   R(6,7)                  1.2314         estimate D2E/DX2                !
 ! R13   R(6,8)                  1.369          estimate D2E/DX2                !
 ! R14   R(8,9)                  1.4572         estimate D2E/DX2                !
 ! R15   R(8,10)                 1.4566         estimate D2E/DX2                !
 ! R16   R(9,16)                 1.0888         estimate D2E/DX2                !
 ! R17   R(9,17)                 1.0976         estimate D2E/DX2                !
 ! R18   R(9,18)                 1.0979         estimate D2E/DX2                !
 ! R19   R(10,19)                1.0976         estimate D2E/DX2                !
 ! R20   R(10,20)                1.0884         estimate D2E/DX2                !
 ! R21   R(10,21)                1.0968         estimate D2E/DX2                !
 ! R22   R(22,23)                1.092          estimate D2E/DX2                !
 ! R23   R(22,24)                1.093          estimate D2E/DX2                !
 ! R24   R(22,25)                1.5317         estimate D2E/DX2                !
 ! R25   R(25,26)                1.104          estimate D2E/DX2                !
 ! R26   R(25,27)                1.0995         estimate D2E/DX2                !
 ! R27   R(25,28)                1.4138         estimate D2E/DX2                !
 ! R28   R(28,29)                1.4126         estimate D2E/DX2                !
 ! R29   R(29,30)                1.0924         estimate D2E/DX2                !
 ! R30   R(29,31)                1.1007         estimate D2E/DX2                !
 ! R31   R(29,32)                1.1016         estimate D2E/DX2                !
 ! A1    A(2,1,11)             107.2794         estimate D2E/DX2                !
 ! A2    A(2,1,12)             112.8419         estimate D2E/DX2                !
 ! A3    A(2,1,13)             110.8836         estimate D2E/DX2                !
 ! A4    A(11,1,12)            109.4809         estimate D2E/DX2                !
 ! A5    A(11,1,13)            108.6208         estimate D2E/DX2                !
 ! A6    A(12,1,13)            107.6649         estimate D2E/DX2                !
 ! A7    A(1,2,3)              120.5432         estimate D2E/DX2                !
 ! A8    A(1,2,4)              117.7148         estimate D2E/DX2                !
 ! A9    A(3,2,4)              121.7404         estimate D2E/DX2                !
 ! A10   A(2,4,5)              117.9644         estimate D2E/DX2                !
 ! A11   A(2,4,22)             123.5825         estimate D2E/DX2                !
 ! A12   A(5,4,22)             117.2207         estimate D2E/DX2                !
 ! A13   A(4,5,6)              112.6294         estimate D2E/DX2                !
 ! A14   A(4,5,14)             109.2196         estimate D2E/DX2                !
 ! A15   A(4,5,15)             107.3495         estimate D2E/DX2                !
 ! A16   A(6,5,14)             104.7931         estimate D2E/DX2                !
 ! A17   A(6,5,15)             113.7822         estimate D2E/DX2                !
 ! A18   A(14,5,15)            108.9586         estimate D2E/DX2                !
 ! A19   A(5,6,7)              119.0741         estimate D2E/DX2                !
 ! A20   A(5,6,8)              118.3209         estimate D2E/DX2                !
 ! A21   A(7,6,8)              122.5951         estimate D2E/DX2                !
 ! A22   A(6,8,9)              125.9764         estimate D2E/DX2                !
 ! A23   A(6,8,10)             118.723          estimate D2E/DX2                !
 ! A24   A(9,8,10)             115.2894         estimate D2E/DX2                !
 ! A25   A(8,9,16)             112.3358         estimate D2E/DX2                !
 ! A26   A(8,9,17)             109.7074         estimate D2E/DX2                !
 ! A27   A(8,9,18)             110.3417         estimate D2E/DX2                !
 ! A28   A(16,9,17)            107.9654         estimate D2E/DX2                !
 ! A29   A(16,9,18)            108.7113         estimate D2E/DX2                !
 ! A30   A(17,9,18)            107.638          estimate D2E/DX2                !
 ! A31   A(8,10,19)            110.5843         estimate D2E/DX2                !
 ! A32   A(8,10,20)            108.5802         estimate D2E/DX2                !
 ! A33   A(8,10,21)            110.2316         estimate D2E/DX2                !
 ! A34   A(19,10,20)           109.5559         estimate D2E/DX2                !
 ! A35   A(19,10,21)           108.1497         estimate D2E/DX2                !
 ! A36   A(20,10,21)           109.7307         estimate D2E/DX2                !
 ! A37   A(4,22,23)            110.4067         estimate D2E/DX2                !
 ! A38   A(4,22,24)            108.2988         estimate D2E/DX2                !
 ! A39   A(4,22,25)            113.6679         estimate D2E/DX2                !
 ! A40   A(23,22,24)           107.3036         estimate D2E/DX2                !
 ! A41   A(23,22,25)           108.3769         estimate D2E/DX2                !
 ! A42   A(24,22,25)           108.5845         estimate D2E/DX2                !
 ! A43   A(22,25,26)           110.3421         estimate D2E/DX2                !
 ! A44   A(22,25,27)           110.2052         estimate D2E/DX2                !
 ! A45   A(22,25,28)           106.6766         estimate D2E/DX2                !
 ! A46   A(26,25,27)           107.7887         estimate D2E/DX2                !
 ! A47   A(26,25,28)           110.9323         estimate D2E/DX2                !
 ! A48   A(27,25,28)           110.9183         estimate D2E/DX2                !
 ! A49   A(25,28,29)           112.9727         estimate D2E/DX2                !
 ! A50   A(28,29,30)           107.2562         estimate D2E/DX2                !
 ! A51   A(28,29,31)           111.7433         estimate D2E/DX2                !
 ! A52   A(28,29,32)           111.8027         estimate D2E/DX2                !
 ! A53   A(30,29,31)           108.9063         estimate D2E/DX2                !
 ! A54   A(30,29,32)           108.7906         estimate D2E/DX2                !
 ! A55   A(31,29,32)           108.2686         estimate D2E/DX2                !
 ! D1    D(11,1,2,3)            -9.0408         estimate D2E/DX2                !
 ! D2    D(11,1,2,4)           170.4962         estimate D2E/DX2                !
 ! D3    D(12,1,2,3)          -129.7049         estimate D2E/DX2                !
 ! D4    D(12,1,2,4)            49.8321         estimate D2E/DX2                !
 ! D5    D(13,1,2,3)           109.4223         estimate D2E/DX2                !
 ! D6    D(13,1,2,4)           -71.0407         estimate D2E/DX2                !
 ! D7    D(1,2,4,5)            171.0371         estimate D2E/DX2                !
 ! D8    D(1,2,4,22)             4.0924         estimate D2E/DX2                !
 ! D9    D(3,2,4,5)             -9.4318         estimate D2E/DX2                !
 ! D10   D(3,2,4,22)          -176.3765         estimate D2E/DX2                !
 ! D11   D(2,4,5,6)            128.6698         Frozen                          !
 ! D12   D(2,4,5,14)          -115.3359         estimate D2E/DX2                !
 ! D13   D(2,4,5,15)             2.6578         estimate D2E/DX2                !
 ! D14   D(22,4,5,6)           -63.5479         estimate D2E/DX2                !
 ! D15   D(22,4,5,14)           52.4464         estimate D2E/DX2                !
 ! D16   D(22,4,5,15)          170.4402         estimate D2E/DX2                !
 ! D17   D(2,4,22,23)           26.4577         estimate D2E/DX2                !
 ! D18   D(2,4,22,24)          143.6696         estimate D2E/DX2                !
 ! D19   D(2,4,22,25)          -95.57           estimate D2E/DX2                !
 ! D20   D(5,4,22,23)         -140.5768         estimate D2E/DX2                !
 ! D21   D(5,4,22,24)          -23.3649         estimate D2E/DX2                !
 ! D22   D(5,4,22,25)           97.3955         estimate D2E/DX2                !
 ! D23   D(4,5,6,7)             94.9799         estimate D2E/DX2                !
 ! D24   D(4,5,6,8)            -83.9051         Scan                            !
 ! D25   D(14,5,6,7)           -23.6376         estimate D2E/DX2                !
 ! D26   D(14,5,6,8)           157.4774         estimate D2E/DX2                !
 ! D27   D(15,5,6,7)          -142.5571         estimate D2E/DX2                !
 ! D28   D(15,5,6,8)            38.5579         estimate D2E/DX2                !
 ! D29   D(5,6,8,9)              1.358          estimate D2E/DX2                !
 ! D30   D(5,6,8,10)          -179.9187         estimate D2E/DX2                !
 ! D31   D(7,6,8,9)           -177.4853         estimate D2E/DX2                !
 ! D32   D(7,6,8,10)             1.238          estimate D2E/DX2                !
 ! D33   D(6,8,9,16)             3.4489         estimate D2E/DX2                !
 ! D34   D(6,8,9,17)           123.54           estimate D2E/DX2                !
 ! D35   D(6,8,9,18)          -118.0317         estimate D2E/DX2                !
 ! D36   D(10,8,9,16)         -175.3129         estimate D2E/DX2                !
 ! D37   D(10,8,9,17)          -55.2217         estimate D2E/DX2                !
 ! D38   D(10,8,9,18)           63.2065         estimate D2E/DX2                !
 ! D39   D(6,8,10,19)         -117.1447         estimate D2E/DX2                !
 ! D40   D(6,8,10,20)            3.0846         estimate D2E/DX2                !
 ! D41   D(6,8,10,21)          123.3147         estimate D2E/DX2                !
 ! D42   D(9,8,10,19)           61.7126         estimate D2E/DX2                !
 ! D43   D(9,8,10,20)         -178.058          estimate D2E/DX2                !
 ! D44   D(9,8,10,21)          -57.8279         estimate D2E/DX2                !
 ! D45   D(4,22,25,26)          51.7377         estimate D2E/DX2                !
 ! D46   D(4,22,25,27)         -67.1858         estimate D2E/DX2                !
 ! D47   D(4,22,25,28)         172.3231         estimate D2E/DX2                !
 ! D48   D(23,22,25,26)        -71.4079         estimate D2E/DX2                !
 ! D49   D(23,22,25,27)        169.6687         estimate D2E/DX2                !
 ! D50   D(23,22,25,28)         49.1776         estimate D2E/DX2                !
 ! D51   D(24,22,25,26)        172.3375         estimate D2E/DX2                !
 ! D52   D(24,22,25,27)         53.414          estimate D2E/DX2                !
 ! D53   D(24,22,25,28)        -67.0771         estimate D2E/DX2                !
 ! D54   D(22,25,28,29)        174.575          estimate D2E/DX2                !
 ! D55   D(26,25,28,29)        -65.2186         estimate D2E/DX2                !
 ! D56   D(27,25,28,29)         54.5423         estimate D2E/DX2                !
 ! D57   D(25,28,29,30)       -179.6556         estimate D2E/DX2                !
 ! D58   D(25,28,29,31)        -60.3697         estimate D2E/DX2                !
 ! D59   D(25,28,29,32)         61.1656         estimate D2E/DX2                !
 --------------------------------------------------------------------------------
 Trust Radius=3.00D-01 FncErr=1.00D-07 GrdErr=1.00D-06
 Number of optimizations in scan=  37
 Number of steps in this run=    155 maximum allowed number of steps=    192.
 GradGradGradGradGradGradGradGradGradGradGradGradGradGradGradGradGradGrad

                          Input orientation:                          
 ---------------------------------------------------------------------
 Center     Atomic      Atomic             Coordinates (Angstroms)
 Number     Number       Type             X           Y           Z
 ---------------------------------------------------------------------
      1          6           0        1.370553    2.930264   -0.599361
      2          6           0        0.070985    2.329804   -0.085198
      3          8           0       -0.996679    2.920145   -0.244558
      4          7           0        0.136361    1.107743    0.549943
      5          6           0       -1.071426    0.616583    1.222829
      6          6           0       -1.439189   -0.814482    0.806151
      7          8           0       -1.054385   -1.757035    1.498940
      8          7           0       -2.166430   -0.990520   -0.340320
      9          6           0       -2.614163    0.064300   -1.240489
     10          6           0       -2.521748   -2.344553   -0.742937
     11          1           0        1.108752    3.792895   -1.210917
     12          1           0        1.957182    2.225754   -1.194841
     13          1           0        2.000006    3.268303    0.231079
     14          1           0       -0.884159    0.554780    2.299628
     15          1           0       -1.861430    1.342850    1.042497
     16          1           0       -2.254305    1.046516   -0.938357
     17          1           0       -2.245643   -0.133878   -2.255149
     18          1           0       -3.710912    0.089021   -1.283816
     19          1           0       -2.062597   -2.593101   -1.708408
     20          1           0       -2.167073   -3.037000    0.018163
     21          1           0       -3.609610   -2.435731   -0.848423
     22          6           0        1.392103    0.405504    0.829475
     23          1           0        2.215723    1.117498    0.914694
     24          1           0        1.296261   -0.097807    1.794942
     25          6           0        1.762613   -0.636962   -0.229840
     26          1           0        1.732997   -0.187252   -1.237695
     27          1           0        1.043751   -1.468665   -0.211878
     28          8           0        3.065120   -1.088693    0.083625
     29          6           0        3.494934   -2.149497   -0.744340
     30          1           0        4.500444   -2.426925   -0.419804
     31          1           0        2.836946   -3.027479   -0.656706
     32          1           0        3.533730   -1.851438   -1.804168
 ---------------------------------------------------------------------
                    Distance matrix (angstroms):
                    1          2          3          4          5
     1  C    0.000000
     2  C    1.521116   0.000000
     3  O    2.393695   1.230368   0.000000
     4  N    2.483085   1.378808   2.280310   0.000000
     5  C    3.825802   2.439501   2.732254   1.467230   0.000000
     6  C    4.888071   3.600231   3.904772   2.498589   1.535193
     7  O    5.679257   4.525285   4.991906   3.244291   2.389684
     8  N    5.286766   4.011940   4.082988   3.240081   2.495045
     9  C    4.950026   3.698273   3.429866   3.443806   2.958545
    10  C    6.557005   5.385582   5.503750   4.544825   3.838749
    11  H    1.089345   2.117744   2.475557   3.355028   4.556891
    12  H    1.093190   2.190861   3.179703   2.758552   4.196073
    13  H    1.095496   2.168394   3.054106   2.871039   4.177186
    14  H    4.373876   3.122564   3.475701   2.099673   1.094708
    15  H    3.957435   2.445404   2.211824   2.071003   1.088159
    16  H    4.099149   2.789567   2.360819   2.816748   2.500954
    17  H    5.020704   4.018107   3.863864   3.883826   3.746773
    18  H    5.861947   4.556373   4.057386   4.382006   3.678108
    19  H    6.597277   5.605531   5.803010   4.861256   4.458323
    20  H    6.964508   5.815683   6.076711   4.771529   4.000041
    21  H    7.325159   6.069565   5.989780   5.342652   4.477620
    22  C    2.901112   2.506972   3.630874   1.465662   2.503649
    23  H    2.508544   2.658829   3.861726   2.111134   3.339343
    24  H    3.861013   3.305983   4.304087   2.085364   2.538426
    25  C    3.607680   3.418220   4.501880   2.509333   3.422484
    26  H    3.202771   3.228948   4.253630   2.724318   3.816427
    27  H    4.428038   3.923097   4.840049   2.835773   3.298578
    28  O    4.414753   4.547468   5.716353   3.690449   4.617008
    29  C    5.507993   5.676445   6.791586   4.854358   5.689692
    30  H    6.207087   6.508344   7.670739   5.699080   6.557966
    31  H    6.135821   6.056207   7.088073   5.084213   5.664557
    32  H    5.384753   5.694580   6.762026   5.083376   6.038319
                    6          7          8          9         10
     6  C    0.000000
     7  O    1.231437   0.000000
     8  N    1.369038   2.281900   0.000000
     9  C    2.518245   3.640692   1.457194   0.000000
    10  C    2.431610   2.743054   1.456625   2.461437   0.000000
    11  H    5.638128   6.544021   5.862236   5.269098   7.146174
    12  H    4.978186   5.673500   5.298943   5.056794   6.415040
    13  H    5.369162   6.015879   5.985253   5.807039   7.273178
    14  H    2.100812   2.452461   3.316850   3.970631   4.510547
    15  H    2.210934   3.235576   2.729436   2.722742   4.149787
    16  H    2.677879   3.903860   2.124826   1.088820   3.407208
    17  H    3.238078   4.259920   2.099209   1.097550   2.692602
    18  H    3.216365   4.267176   2.107372   1.097883   2.762054
    19  H    3.142472   3.464474   2.109671   2.754079   1.097602
    20  H    2.467859   2.251463   2.077641   3.376708   1.088371
    21  H    3.174396   3.535522   2.104655   2.719335   1.096761
    22  C    3.083038   3.333176   3.997557   4.522316   5.035228
    23  H    4.135542   4.392936   5.022157   5.392758   6.097308
    24  H    2.995666   2.892437   4.164914   4.952932   5.105476
    25  C    3.369915   3.489803   3.946465   4.546355   4.640569
    26  H    3.825374   4.209856   4.081183   4.354433   4.795997
    27  H    2.762124   2.722541   3.248135   4.097360   3.709715
    28  O    4.570124   4.406826   5.249617   5.944487   5.785627
    29  C    5.341522   5.087498   5.792884   6.516757   6.019843
    30  H    6.275522   5.914935   6.820322   7.582701   7.030105
    31  H    5.032160   4.626369   5.411384   6.294004   5.402724
    32  H    5.711302   5.654223   5.947760   6.464083   6.167511
                   11         12         13         14         15
    11  H    0.000000
    12  H    1.782140   0.000000
    13  H    1.774509   1.766915   0.000000
    14  H    5.175037   4.803820   4.467719   0.000000
    15  H    4.461230   4.512981   4.390496   1.776652   0.000000
    16  H    4.350522   4.380983   4.939947   3.550162   2.041065
    17  H    5.268959   4.935165   5.981781   4.803528   3.633568
    18  H    6.078911   6.058121   6.709495   4.587868   3.225586
    19  H    7.147440   6.296327   7.390698   5.230891   4.806210
    20  H    7.673926   6.795398   7.560868   4.444304   4.508410
    21  H    7.822412   7.269018   8.072739   5.126545   4.572678
    22  C    3.964581   2.780374   2.987180   2.713854   3.392561
    23  H    3.591846   2.396917   2.267118   3.441506   4.085376
    24  H    4.920153   3.843768   3.777780   2.331268   3.551433
    25  C    4.584068   3.027247   3.939530   3.850177   4.321132
    26  H    4.028892   2.423777   3.764233   4.462373   4.523317
    27  H    5.355961   3.930560   4.852783   3.757503   4.232984
    28  O    5.416006   3.721231   4.487719   4.817518   5.576982
    29  C    6.420559   4.659448   5.704280   5.979574   6.639270
    30  H    7.128506   5.358758   6.253916   6.729029   7.538101
    31  H    7.057713   5.353506   6.412917   5.951396   6.637907
    32  H    6.171787   4.413647   5.718941   6.492208   6.885835
                   16         17         18         19         20
    16  H    0.000000
    17  H    1.768430   0.000000
    18  H    1.777032   1.772057   0.000000
    19  H    3.725123   2.525908   3.176633   0.000000
    20  H    4.194954   3.688121   3.721639   1.785780   0.000000
    21  H    3.737778   3.022881   2.564021   1.776961   1.787011
    22  C    4.102733   4.799899   5.532352   5.231389   5.017648
    23  H    4.839420   5.614057   6.404390   6.241252   6.105123
    24  H    4.624599   5.380485   5.880938   5.457278   4.877549
    25  C    4.412678   4.518970   5.621156   4.543663   4.611303
    26  H    4.184539   4.107023   5.451110   4.518430   4.990871
    27  H    4.210829   4.095940   5.116860   3.626756   3.580780
    28  O    5.822358   5.880964   7.012240   5.636320   5.583550
    29  C    6.580721   6.268930   7.564801   5.657947   5.781643
    30  H    7.613168   7.357734   8.631504   6.690413   6.709679
    31  H    6.526684   6.063057   7.278756   5.029939   5.049331
    32  H    6.530629   6.046036   7.518044   5.646070   6.101279
                   21         22         23         24         25
    21  H    0.000000
    22  C    5.992086   0.000000
    23  H    7.047590   1.092038   0.000000
    24  H    6.043247   1.092993   1.759890   0.000000
    25  C    5.699035   1.531718   2.143221   2.146605   0.000000
    26  H    5.809530   2.177329   2.562845   3.065229   1.104033
    27  H    4.795224   2.172159   3.054656   2.443428   1.099461
    28  O    6.872790   2.363875   2.505879   2.653172   1.413805
    29  C    7.111069   3.664263   3.880983   3.935930   2.356567
    30  H    8.121377   4.386928   4.423095   4.538356   3.276549
    31  H    6.476496   4.010197   4.476165   4.119134   2.655368
    32  H    7.230640   4.076325   4.236028   4.586402   2.662765
                   26         27         28         29         30
    26  H    0.000000
    27  H    1.780275   0.000000
    28  O    2.081594   2.077892   0.000000
    29  C    2.682951   2.599105   1.412647   0.000000
    30  H    3.652923   3.593080   2.025947   1.092401   0.000000
    31  H    3.102119   2.417296   2.087832   1.100673   1.784380
    32  H    2.516554   2.980251   2.089291   1.101626   1.783868
                   31         32
    31  H    0.000000
    32  H    1.784727   0.000000
 Stoichiometry    C9H18N2O3
 Framework group  C1[X(C9H18N2O3)]
 Deg. of freedom    90
 Full point group                 C1      NOp   1
 Largest Abelian subgroup         C1      NOp   1
 Largest concise Abelian subgroup C1      NOp   1
                         Standard orientation:                         
 ---------------------------------------------------------------------
 Center     Atomic      Atomic             Coordinates (Angstroms)
 Number     Number       Type             X           Y           Z
 ---------------------------------------------------------------------
      1          6           0        1.370552    2.930264   -0.599361
      2          6           0        0.070985    2.329804   -0.085198
      3          8           0       -0.996680    2.920145   -0.244558
      4          7           0        0.136361    1.107743    0.549943
      5          6           0       -1.071426    0.616583    1.222829
      6          6           0       -1.439189   -0.814482    0.806151
      7          8           0       -1.054385   -1.757035    1.498940
      8          7           0       -2.166430   -0.990520   -0.340320
      9          6           0       -2.614163    0.064299   -1.240489
     10          6           0       -2.521748   -2.344554   -0.742937
     11          1           0        1.108751    3.792895   -1.210917
     12          1           0        1.957182    2.225754   -1.194841
     13          1           0        2.000005    3.268303    0.231079
     14          1           0       -0.884159    0.554780    2.299628
     15          1           0       -1.861430    1.342850    1.042497
     16          1           0       -2.254305    1.046515   -0.938357
     17          1           0       -2.245643   -0.133879   -2.255149
     18          1           0       -3.710912    0.089020   -1.283816
     19          1           0       -2.062596   -2.593101   -1.708408
     20          1           0       -2.167072   -3.037000    0.018163
     21          1           0       -3.609609   -2.435732   -0.848423
     22          6           0        1.392103    0.405504    0.829475
     23          1           0        2.215723    1.117498    0.914694
     24          1           0        1.296261   -0.097807    1.794942
     25          6           0        1.762613   -0.636962   -0.229840
     26          1           0        1.732997   -0.187252   -1.237695
     27          1           0        1.043751   -1.468665   -0.211878
     28          8           0        3.065120   -1.088692    0.083625
     29          6           0        3.494934   -2.149496   -0.744340
     30          1           0        4.500445   -2.426924   -0.419804
     31          1           0        2.836947   -3.027478   -0.656706
     32          1           0        3.533730   -1.851437   -1.804168
 ---------------------------------------------------------------------
 Rotational constants (GHZ):      0.6599640      0.5424521      0.3582974
 Standard basis: 6-31G(d,p) (6D, 7F)
 There are   300 symmetry adapted basis functions of A   symmetry.
 Integral buffers will be    131072 words long.
 Raffenetti 2 integral format.
 Two-electron integral symmetry is turned on.
   300 basis functions,   518 primitive gaussians,   300 cartesian basis functions
    55 alpha electrons       55 beta electrons
       nuclear repulsion energy       985.1052847195 Hartrees.
 NAtoms=   32 NActive=   32 NUniq=   32 SFac= 1.00D+00 NAtFMM=   60 NAOKFM=F Big=F
 One-electron integrals computed using PRISM.
 NBasis=   300 RedAO= T  NBF=   300
 NBsUse=   300 1.00D-06 NBFU=   300
 Harris functional with IExCor=  402 diagonalized for initial guess.
 ExpMin= 1.61D-01 ExpMax= 5.48D+03 ExpMxC= 8.25D+02 IAcc=1 IRadAn=         1 AccDes= 0.00D+00
 HarFok:  IExCor=  402 AccDes= 0.00D+00 IRadAn=         1 IDoV= 1
 ScaDFX=  1.000000  1.000000  1.000000  1.000000
 FoFCou: FMM=F IPFlag=           0 FMFlag=      100000 FMFlg1=           0
         NFxFlg=           0 DoJE=T BraDBF=F KetDBF=T FulRan=T
         Omega=  0.000000  0.000000  1.000000  0.000000  0.000000 ICntrl=     500 IOpCl=  0
         NMat0=    1 NMatS0=    1 NMatT0=    0 NMatD0=    1 NMtDS0=    0 NMtDT0=    0
         I1Cent=           4 NGrid=           0.
 Petite list used in FoFCou.
 Initial guess orbital symmetries:
       Occupied  (A) (A) (A) (A) (A) (A) (A) (A) (A) (A) (A) (A)
                 (A) (A) (A) (A) (A) (A) (A) (A) (A) (A) (A) (A)
                 (A) (A) (A) (A) (A) (A) (A) (A) (A) (A) (A) (A)
                 (A) (A) (A) (A) (A) (A) (A) (A) (A) (A) (A) (A)
                 (A) (A) (A) (A) (A) (A) (A)
       Virtual   (A) (A) (A) (A) (A) (A) (A) (A) (A) (A) (A) (A)
                 (A) (A) (A) (A) (A) (A) (A) (A) (A) (A) (A) (A)
                 (A) (A) (A) (A) (A) (A) (A) (A) (A) (A) (A) (A)
                 (A) (A) (A) (A) (A) (A) (A) (A) (A) (A) (A) (A)
                 (A) (A) (A) (A) (A) (A) (A) (A) (A) (A) (A) (A)
                 (A) (A) (A) (A) (A) (A) (A) (A) (A) (A) (A) (A)
                 (A) (A) (A) (A) (A) (A) (A) (A) (A) (A) (A) (A)
                 (A) (A) (A) (A) (A) (A) (A) (A) (A) (A) (A) (A)
                 (A) (A) (A) (A) (A) (A) (A) (A) (A) (A) (A) (A)
                 (A) (A) (A) (A) (A) (A) (A) (A) (A) (A) (A) (A)
                 (A) (A) (A) (A) (A) (A) (A) (A) (A) (A) (A) (A)
                 (A) (A) (A) (A) (A) (A) (A) (A) (A) (A) (A) (A)
                 (A) (A) (A) (A) (A) (A) (A) (A) (A) (A) (A) (A)
                 (A) (A) (A) (A) (A) (A) (A) (A) (A) (A) (A) (A)
                 (A) (A) (A) (A) (A) (A) (A) (A) (A) (A) (A) (A)
                 (A) (A) (A) (A) (A) (A) (A) (A) (A) (A) (A) (A)
                 (A) (A) (A) (A) (A) (A) (A) (A) (A) (A) (A) (A)
                 (A) (A) (A) (A) (A) (A) (A) (A) (A) (A) (A) (A)
                 (A) (A) (A) (A) (A) (A) (A) (A) (A) (A) (A) (A)
                 (A) (A) (A) (A) (A) (A) (A) (A) (A) (A) (A) (A)
                 (A) (A) (A) (A) (A)
 The electronic state of the initial guess is 1-A.
 Requested convergence on RMS density matrix=1.00D-08 within 128 cycles.
 Requested convergence on MAX density matrix=1.00D-06.
 Requested convergence on             energy=1.00D-06.
 No special actions if energy rises.
 Keep R1 ints in memory in canonical form, NReq=1033483448.
 Integral accuracy reduced to 1.0D-05 until final iterations.
 Initial convergence to 1.0D-05 achieved.  Increase integral accuracy.
 SCF Done:  E(RB3LYP) =  -688.997925189     A.U. after   14 cycles
             Convg  =    0.9588D-08             -V/T =  2.0093

 **********************************************************************

            Population analysis using the SCF density.

 **********************************************************************

 Orbital symmetries:
       Occupied  (A) (A) (A) (A) (A) (A) (A) (A) (A) (A) (A) (A)
                 (A) (A) (A) (A) (A) (A) (A) (A) (A) (A) (A) (A)
                 (A) (A) (A) (A) (A) (A) (A) (A) (A) (A) (A) (A)
                 (A) (A) (A) (A) (A) (A) (A) (A) (A) (A) (A) (A)
                 (A) (A) (A) (A) (A) (A) (A)
       Virtual   (A) (A) (A) (A) (A) (A) (A) (A) (A) (A) (A) (A)
                 (A) (A) (A) (A) (A) (A) (A) (A) (A) (A) (A) (A)
                 (A) (A) (A) (A) (A) (A) (A) (A) (A) (A) (A) (A)
                 (A) (A) (A) (A) (A) (A) (A) (A) (A) (A) (A) (A)
                 (A) (A) (A) (A) (A) (A) (A) (A) (A) (A) (A) (A)
                 (A) (A) (A) (A) (A) (A) (A) (A) (A) (A) (A) (A)
                 (A) (A) (A) (A) (A) (A) (A) (A) (A) (A) (A) (A)
                 (A) (A) (A) (A) (A) (A) (A) (A) (A) (A) (A) (A)
                 (A) (A) (A) (A) (A) (A) (A) (A) (A) (A) (A) (A)
                 (A) (A) (A) (A) (A) (A) (A) (A) (A) (A) (A) (A)
                 (A) (A) (A) (A) (A) (A) (A) (A) (A) (A) (A) (A)
                 (A) (A) (A) (A) (A) (A) (A) (A) (A) (A) (A) (A)
                 (A) (A) (A) (A) (A) (A) (A) (A) (A) (A) (A) (A)
                 (A) (A) (A) (A) (A) (A) (A) (A) (A) (A) (A) (A)
                 (A) (A) (A) (A) (A) (A) (A) (A) (A) (A) (A) (A)
                 (A) (A) (A) (A) (A) (A) (A) (A) (A) (A) (A) (A)
                 (A) (A) (A) (A) (A) (A) (A) (A) (A) (A) (A) (A)
                 (A) (A) (A) (A) (A) (A) (A) (A) (A) (A) (A) (A)
                 (A) (A) (A) (A) (A) (A) (A) (A) (A) (A) (A) (A)
                 (A) (A) (A) (A) (A) (A) (A) (A) (A) (A) (A) (A)
                 (A) (A) (A) (A) (A)
 The electronic state is 1-A.
 Alpha  occ. eigenvalues --  -19.15349 -19.11623 -19.10983 -14.37291 -14.36908
 Alpha  occ. eigenvalues --  -10.29255 -10.28465 -10.23599 -10.23112 -10.22662
 Alpha  occ. eigenvalues --  -10.22403 -10.21918 -10.21414 -10.19535  -1.03859
 Alpha  occ. eigenvalues --   -1.03575  -1.02882  -0.93729  -0.93163  -0.77341
 Alpha  occ. eigenvalues --   -0.75784  -0.72710  -0.71394  -0.68481  -0.67368
 Alpha  occ. eigenvalues --   -0.62415  -0.55978  -0.54301  -0.51975  -0.49939
 Alpha  occ. eigenvalues --   -0.48934  -0.48122  -0.47460  -0.46888  -0.46411
 Alpha  occ. eigenvalues --   -0.44983  -0.44118  -0.42206  -0.41660  -0.40956
 Alpha  occ. eigenvalues --   -0.40396  -0.40193  -0.39974  -0.39009  -0.37926
 Alpha  occ. eigenvalues --   -0.37392  -0.36987  -0.35914  -0.35332  -0.32425
 Alpha  occ. eigenvalues --   -0.26062  -0.25983  -0.25365  -0.24117  -0.23717
 Alpha virt. eigenvalues --    0.01249   0.02378   0.07779   0.09020   0.09308
 Alpha virt. eigenvalues --    0.11451   0.12860   0.13217   0.13545   0.14364
 Alpha virt. eigenvalues --    0.15164   0.15463   0.16091   0.16218   0.16451
 Alpha virt. eigenvalues --    0.16977   0.17176   0.17946   0.18497   0.19039
 Alpha virt. eigenvalues --    0.20458   0.20642   0.21661   0.22156   0.22429
 Alpha virt. eigenvalues --    0.22906   0.25616   0.27802   0.28937   0.32632
 Alpha virt. eigenvalues --    0.35208   0.36892   0.41376   0.46555   0.48202
 Alpha virt. eigenvalues --    0.49827   0.50022   0.50872   0.51659   0.53374
 Alpha virt. eigenvalues --    0.53964   0.55134   0.56077   0.57012   0.57538
 Alpha virt. eigenvalues --    0.59438   0.60211   0.61739   0.64479   0.65089
 Alpha virt. eigenvalues --    0.65573   0.67309   0.68502   0.69736   0.71415
 Alpha virt. eigenvalues --    0.72295   0.74025   0.75073   0.75843   0.76769
 Alpha virt. eigenvalues --    0.78311   0.79742   0.80960   0.81571   0.82005
 Alpha virt. eigenvalues --    0.83723   0.83926   0.84472   0.85720   0.85982
 Alpha virt. eigenvalues --    0.86195   0.88087   0.88658   0.89322   0.90637
 Alpha virt. eigenvalues --    0.91271   0.91921   0.93755   0.94248   0.95620
 Alpha virt. eigenvalues --    0.96045   0.96996   0.97588   0.98713   0.99363
 Alpha virt. eigenvalues --    1.01957   1.03646   1.05901   1.10542   1.10621
 Alpha virt. eigenvalues --    1.12768   1.15168   1.17862   1.21232   1.24674
 Alpha virt. eigenvalues --    1.27044   1.27640   1.29933   1.30284   1.32009
 Alpha virt. eigenvalues --    1.34779   1.36997   1.37554   1.38058   1.40185
 Alpha virt. eigenvalues --    1.42374   1.45996   1.46053   1.47960   1.50993
 Alpha virt. eigenvalues --    1.56802   1.58101   1.60316   1.60706   1.65134
 Alpha virt. eigenvalues --    1.67263   1.70008   1.71972   1.73160   1.74667
 Alpha virt. eigenvalues --    1.75602   1.77413   1.78336   1.81400   1.83158
 Alpha virt. eigenvalues --    1.83683   1.84167   1.86384   1.87877   1.88409
 Alpha virt. eigenvalues --    1.89450   1.89801   1.90983   1.93172   1.94228
 Alpha virt. eigenvalues --    1.96255   1.96692   1.97409   1.98504   2.00613
 Alpha virt. eigenvalues --    2.00726   2.02541   2.02714   2.02979   2.03090
 Alpha virt. eigenvalues --    2.03939   2.04720   2.05235   2.05802   2.06641
 Alpha virt. eigenvalues --    2.08514   2.09534   2.09734   2.10819   2.11299
 Alpha virt. eigenvalues --    2.12415   2.13440   2.16151   2.18064   2.22157
 Alpha virt. eigenvalues --    2.23753   2.24613   2.26976   2.28584   2.29327
 Alpha virt. eigenvalues --    2.31511   2.32984   2.34398   2.37762   2.40822
 Alpha virt. eigenvalues --    2.42283   2.43986   2.44984   2.48286   2.50203
 Alpha virt. eigenvalues --    2.51806   2.52090   2.54473   2.55098   2.57498
 Alpha virt. eigenvalues --    2.58322   2.60022   2.61313   2.62753   2.63852
 Alpha virt. eigenvalues --    2.64707   2.66676   2.67881   2.68746   2.69987
 Alpha virt. eigenvalues --    2.71057   2.72774   2.73999   2.74583   2.79596
 Alpha virt. eigenvalues --    2.80639   2.82503   2.84057   2.84362   2.85642
 Alpha virt. eigenvalues --    2.87301   2.88931   2.89525   2.90411   2.91574
 Alpha virt. eigenvalues --    2.96327   2.97780   2.99572   3.05260   3.06839
 Alpha virt. eigenvalues --    3.11061   3.11975   3.15943   3.17462   3.18183
 Alpha virt. eigenvalues --    3.22963   3.25453   3.27336   3.34796   3.36617
 Alpha virt. eigenvalues --    3.38268   3.38868   3.42165   3.42858   3.43663
 Alpha virt. eigenvalues --    3.43846   3.44186   3.45874   3.49482   3.51538
 Alpha virt. eigenvalues --    3.54965   3.94875   4.02362   4.05161   4.08848
 Alpha virt. eigenvalues --    4.18929   4.30159   4.38514   4.40195   4.45114
 Alpha virt. eigenvalues --    4.50723   4.54116   4.64388   4.69430   4.74360
          Condensed to atoms (all electrons):
              1          2          3          4          5          6
     1  C    5.135654   0.354308  -0.076881  -0.117016   0.005307  -0.000108
     2  C    0.354308   4.384603   0.551440   0.269070  -0.024777  -0.000320
     3  O   -0.076881   0.551440   8.102891  -0.097134  -0.009354  -0.000065
     4  N   -0.117016   0.269070  -0.097134   7.101945   0.276682  -0.046248
     5  C    0.005307  -0.024777  -0.009354   0.276682   5.035407   0.330955
     6  C   -0.000108  -0.000320  -0.000065  -0.046248   0.330955   4.443950
     7  O    0.000000  -0.000108  -0.000003  -0.002295  -0.077605   0.530153
     8  N    0.000004   0.000533   0.000211   0.001986  -0.103372   0.285964
     9  C   -0.000167  -0.000286  -0.009943   0.004039   0.000806  -0.026037
    10  C    0.000000  -0.000016   0.000000  -0.000200   0.005785  -0.030821
    11  H    0.368125  -0.022935   0.004922   0.004561  -0.000109   0.000003
    12  H    0.361954  -0.022612   0.001900   0.001906  -0.000068   0.000010
    13  H    0.365835  -0.021557   0.000897   0.001325  -0.000239  -0.000007
    14  H   -0.000117   0.002452   0.000871  -0.039716   0.365813  -0.036924
    15  H    0.001271  -0.006017   0.020805  -0.038967   0.358606  -0.023749
    16  H    0.000505   0.002264   0.027099  -0.008424   0.004763  -0.005284
    17  H    0.000009   0.000150   0.000027   0.000012  -0.000229   0.001466
    18  H    0.000000  -0.000021   0.000067   0.000087  -0.000251  -0.000607
    19  H    0.000000   0.000001   0.000000   0.000026  -0.000155   0.001244
    20  H    0.000000   0.000001   0.000000  -0.000019   0.001033  -0.003886
    21  H    0.000000   0.000000   0.000000  -0.000002  -0.000159   0.001230
    22  C    0.001455  -0.027680   0.002340   0.236542  -0.039015  -0.000131
    23  H    0.006767  -0.009482   0.000110  -0.032365   0.002892   0.000097
    24  H   -0.000210   0.002562  -0.000089  -0.031935  -0.004560  -0.003036
    25  C   -0.001963  -0.000387  -0.000002  -0.048571  -0.000846  -0.000066
    26  H   -0.001011   0.001787  -0.000072   0.003560   0.000317  -0.000147
    27  H    0.000056  -0.000086   0.000002   0.000833  -0.000264   0.005618
    28  O   -0.000019   0.000024   0.000000   0.002008  -0.000007  -0.000040
    29  C    0.000002  -0.000003   0.000000  -0.000120   0.000001  -0.000001
    30  H    0.000000   0.000000   0.000000   0.000001   0.000000   0.000000
    31  H    0.000000   0.000000   0.000000   0.000005  -0.000001   0.000001
    32  H   -0.000002   0.000000   0.000000   0.000014   0.000000   0.000000
              7          8          9         10         11         12
     1  C    0.000000   0.000004  -0.000167   0.000000   0.368125   0.361954
     2  C   -0.000108   0.000533  -0.000286  -0.000016  -0.022935  -0.022612
     3  O   -0.000003   0.000211  -0.009943   0.000000   0.004922   0.001900
     4  N   -0.002295   0.001986   0.004039  -0.000200   0.004561   0.001906
     5  C   -0.077605  -0.103372   0.000806   0.005785  -0.000109  -0.000068
     6  C    0.530153   0.285964  -0.026037  -0.030821   0.000003   0.000010
     7  O    8.141097  -0.095040   0.002765  -0.013084   0.000000   0.000000
     8  N   -0.095040   6.995673   0.287981   0.292634   0.000000  -0.000002
     9  C    0.002765   0.287981   4.860264  -0.051000   0.000002   0.000031
    10  C   -0.013084   0.292634  -0.051000   4.826949   0.000000   0.000000
    11  H    0.000000   0.000000   0.000002   0.000000   0.544678  -0.023036
    12  H    0.000000  -0.000002   0.000031   0.000000  -0.023036   0.577753
    13  H    0.000000   0.000000   0.000000   0.000000  -0.021462  -0.028720
    14  H    0.003841   0.004861   0.000444  -0.000165   0.000001  -0.000009
    15  H    0.002877   0.001375  -0.003570  -0.000212  -0.000034  -0.000027
    16  H    0.000001  -0.024518   0.367966   0.004026   0.000000  -0.000080
    17  H   -0.000022  -0.045131   0.382915  -0.003025  -0.000001  -0.000002
    18  H   -0.000055  -0.044687   0.380661  -0.002092   0.000000   0.000000
    19  H    0.000771  -0.044477  -0.002130   0.383949   0.000000   0.000000
    20  H    0.025070  -0.035693   0.004281   0.382658   0.000000   0.000000
    21  H    0.000659  -0.044855  -0.001215   0.386610   0.000000   0.000000
    22  C    0.002757  -0.001048  -0.000248   0.000017   0.000305  -0.001504
    23  H    0.000072  -0.000009   0.000005   0.000000   0.000013  -0.002430
    24  H    0.005494   0.000166   0.000003  -0.000005  -0.000010   0.000188
    25  C   -0.004483   0.001589   0.000055  -0.000087   0.000025   0.000122
    26  H    0.000108  -0.000092   0.000040  -0.000006  -0.000040   0.003889
    27  H    0.006891  -0.002234   0.000047   0.000396   0.000001  -0.000055
    28  O    0.000012   0.000003   0.000000   0.000000   0.000000  -0.000016
    29  C   -0.000001   0.000001   0.000000   0.000000   0.000000  -0.000008
    30  H    0.000000   0.000000   0.000000   0.000000   0.000000   0.000000
    31  H   -0.000011  -0.000001   0.000000   0.000000   0.000000   0.000000
    32  H    0.000000   0.000000   0.000000   0.000000   0.000000   0.000004
             13         14         15         16         17         18
     1  C    0.365835  -0.000117   0.001271   0.000505   0.000009   0.000000
     2  C   -0.021557   0.002452  -0.006017   0.002264   0.000150  -0.000021
     3  O    0.000897   0.000871   0.020805   0.027099   0.000027   0.000067
     4  N    0.001325  -0.039716  -0.038967  -0.008424   0.000012   0.000087
     5  C   -0.000239   0.365813   0.358606   0.004763  -0.000229  -0.000251
     6  C   -0.000007  -0.036924  -0.023749  -0.005284   0.001466  -0.000607
     7  O    0.000000   0.003841   0.002877   0.000001  -0.000022  -0.000055
     8  N    0.000000   0.004861   0.001375  -0.024518  -0.045131  -0.044687
     9  C    0.000000   0.000444  -0.003570   0.367966   0.382915   0.380661
    10  C    0.000000  -0.000165  -0.000212   0.004026  -0.003025  -0.002092
    11  H   -0.021462   0.000001  -0.000034   0.000000  -0.000001   0.000000
    12  H   -0.028720  -0.000009  -0.000027  -0.000080  -0.000002   0.000000
    13  H    0.564940   0.000029  -0.000044   0.000001   0.000000   0.000000
    14  H    0.000029   0.590095  -0.023071  -0.000054  -0.000019   0.000028
    15  H   -0.000044  -0.023071   0.551528  -0.001062   0.000181   0.000327
    16  H    0.000001  -0.000054  -0.001062   0.521061  -0.025670  -0.025055
    17  H    0.000000  -0.000019   0.000181  -0.025670   0.619042  -0.047650
    18  H    0.000000   0.000028   0.000327  -0.025055  -0.047650   0.618416
    19  H    0.000000   0.000001  -0.000001  -0.000026   0.007190  -0.001706
    20  H    0.000000  -0.000029  -0.000040  -0.000188  -0.000048  -0.000055
    21  H    0.000000   0.000008  -0.000008   0.000016  -0.002175   0.006606
    22  C   -0.002567  -0.008592   0.004491   0.000078   0.000047  -0.000005
    23  H    0.002237   0.000572  -0.000151  -0.000006   0.000001   0.000000
    24  H    0.000160   0.006538   0.000427  -0.000023   0.000002   0.000000
    25  C    0.000067  -0.000328  -0.000207   0.000039  -0.000081   0.000004
    26  H    0.000088   0.000004   0.000020  -0.000018   0.000057   0.000000
    27  H   -0.000007   0.000137  -0.000004  -0.000015   0.000049  -0.000003
    28  O   -0.000011   0.000006   0.000001   0.000000   0.000000   0.000000
    29  C    0.000000   0.000000   0.000000   0.000000   0.000000   0.000000
    30  H    0.000000   0.000000   0.000000   0.000000   0.000000   0.000000
    31  H    0.000000   0.000000   0.000000   0.000000   0.000000   0.000000
    32  H    0.000000   0.000000   0.000000   0.000000   0.000000   0.000000
             19         20         21         22         23         24
     1  C    0.000000   0.000000   0.000000   0.001455   0.006767  -0.000210
     2  C    0.000001   0.000001   0.000000  -0.027680  -0.009482   0.002562
     3  O    0.000000   0.000000   0.000000   0.002340   0.000110  -0.000089
     4  N    0.000026  -0.000019  -0.000002   0.236542  -0.032365  -0.031935
     5  C   -0.000155   0.001033  -0.000159  -0.039015   0.002892  -0.004560
     6  C    0.001244  -0.003886   0.001230  -0.000131   0.000097  -0.003036
     7  O    0.000771   0.025070   0.000659   0.002757   0.000072   0.005494
     8  N   -0.044477  -0.035693  -0.044855  -0.001048  -0.000009   0.000166
     9  C   -0.002130   0.004281  -0.001215  -0.000248   0.000005   0.000003
    10  C    0.383949   0.382658   0.386610   0.000017   0.000000  -0.000005
    11  H    0.000000   0.000000   0.000000   0.000305   0.000013  -0.000010
    12  H    0.000000   0.000000   0.000000  -0.001504  -0.002430   0.000188
    13  H    0.000000   0.000000   0.000000  -0.002567   0.002237   0.000160
    14  H    0.000001  -0.000029   0.000008  -0.008592   0.000572   0.006538
    15  H   -0.000001  -0.000040  -0.000008   0.004491  -0.000151   0.000427
    16  H   -0.000026  -0.000188   0.000016   0.000078  -0.000006  -0.000023
    17  H    0.007190  -0.000048  -0.002175   0.000047   0.000001   0.000002
    18  H   -0.001706  -0.000055   0.006606  -0.000005   0.000000   0.000000
    19  H    0.615103  -0.025765  -0.044101   0.000007   0.000000   0.000001
    20  H   -0.025765   0.517068  -0.023635  -0.000003   0.000000  -0.000007
    21  H   -0.044101  -0.023635   0.607117  -0.000001   0.000000   0.000000
    22  C    0.000007  -0.000003  -0.000001   4.920102   0.375767   0.374920
    23  H    0.000000   0.000000   0.000000   0.375767   0.601410  -0.027991
    24  H    0.000001  -0.000007   0.000000   0.374920  -0.027991   0.573343
    25  C   -0.000051  -0.000023   0.000003   0.361226  -0.047572  -0.041834
    26  H    0.000005  -0.000001   0.000000  -0.047404  -0.006751   0.006428
    27  H    0.000301   0.000123  -0.000005  -0.032164   0.006474  -0.008405
    28  O    0.000000   0.000000   0.000000  -0.040180   0.006581   0.004991
    29  C    0.000000   0.000000   0.000000   0.004579  -0.000105  -0.000094
    30  H    0.000000   0.000000   0.000000  -0.000266   0.000005   0.000010
    31  H    0.000001   0.000000   0.000000   0.000092   0.000070  -0.000066
    32  H    0.000000   0.000000   0.000000  -0.000031  -0.000065   0.000037
             25         26         27         28         29         30
     1  C   -0.001963  -0.001011   0.000056  -0.000019   0.000002   0.000000
     2  C   -0.000387   0.001787  -0.000086   0.000024  -0.000003   0.000000
     3  O   -0.000002  -0.000072   0.000002   0.000000   0.000000   0.000000
     4  N   -0.048571   0.003560   0.000833   0.002008  -0.000120   0.000001
     5  C   -0.000846   0.000317  -0.000264  -0.000007   0.000001   0.000000
     6  C   -0.000066  -0.000147   0.005618  -0.000040  -0.000001   0.000000
     7  O   -0.004483   0.000108   0.006891   0.000012  -0.000001   0.000000
     8  N    0.001589  -0.000092  -0.002234   0.000003   0.000001   0.000000
     9  C    0.000055   0.000040   0.000047   0.000000   0.000000   0.000000
    10  C   -0.000087  -0.000006   0.000396   0.000000   0.000000   0.000000
    11  H    0.000025  -0.000040   0.000001   0.000000   0.000000   0.000000
    12  H    0.000122   0.003889  -0.000055  -0.000016  -0.000008   0.000000
    13  H    0.000067   0.000088  -0.000007  -0.000011   0.000000   0.000000
    14  H   -0.000328   0.000004   0.000137   0.000006   0.000000   0.000000
    15  H   -0.000207   0.000020  -0.000004   0.000001   0.000000   0.000000
    16  H    0.000039  -0.000018  -0.000015   0.000000   0.000000   0.000000
    17  H   -0.000081   0.000057   0.000049   0.000000   0.000000   0.000000
    18  H    0.000004   0.000000  -0.000003   0.000000   0.000000   0.000000
    19  H   -0.000051   0.000005   0.000301   0.000000   0.000000   0.000000
    20  H   -0.000023  -0.000001   0.000123   0.000000   0.000000   0.000000
    21  H    0.000003   0.000000  -0.000005   0.000000   0.000000   0.000000
    22  C    0.361226  -0.047404  -0.032164  -0.040180   0.004579  -0.000266
    23  H   -0.047572  -0.006751   0.006474   0.006581  -0.000105   0.000005
    24  H   -0.041834   0.006428  -0.008405   0.004991  -0.000094   0.000010
    25  C    4.794886   0.356281   0.362983   0.228003  -0.034132   0.005396
    26  H    0.356281   0.700006  -0.056626  -0.039845  -0.005299  -0.000122
    27  H    0.362983  -0.056626   0.637925  -0.035238  -0.006573  -0.000069
    28  O    0.228003  -0.039845  -0.035238   8.209930   0.258970  -0.032962
    29  C   -0.034132  -0.005299  -0.006573   0.258970   4.706853   0.394508
    30  H    0.005396  -0.000122  -0.000069  -0.032962   0.394508   0.586219
    31  H   -0.008191  -0.002603   0.013064  -0.037556   0.372624  -0.034183
    32  H   -0.009472   0.012468  -0.002659  -0.037559   0.368961  -0.035539
             31         32
     1  C    0.000000  -0.000002
     2  C    0.000000   0.000000
     3  O    0.000000   0.000000
     4  N    0.000005   0.000014
     5  C   -0.000001   0.000000
     6  C    0.000001   0.000000
     7  O   -0.000011   0.000000
     8  N   -0.000001   0.000000
     9  C    0.000000   0.000000
    10  C    0.000000   0.000000
    11  H    0.000000   0.000000
    12  H    0.000000   0.000004
    13  H    0.000000   0.000000
    14  H    0.000000   0.000000
    15  H    0.000000   0.000000
    16  H    0.000000   0.000000
    17  H    0.000000   0.000000
    18  H    0.000000   0.000000
    19  H    0.000001   0.000000
    20  H    0.000000   0.000000
    21  H    0.000000   0.000000
    22  C    0.000092  -0.000031
    23  H    0.000070  -0.000065
    24  H   -0.000066   0.000037
    25  C   -0.008191  -0.009472
    26  H   -0.002603   0.012468
    27  H    0.013064  -0.002659
    28  O   -0.037556  -0.037559
    29  C    0.372624   0.368961
    30  H   -0.034183  -0.035539
    31  H    0.650131  -0.052438
    32  H   -0.052438   0.667372
 Mulliken atomic charges:
              1
     1  C   -0.403761
     2  C    0.567091
     3  O   -0.520038
     4  N   -0.441587
     5  C   -0.127356
     6  C    0.576787
     7  O   -0.529864
     8  N   -0.431822
     9  C   -0.197709
    10  C   -0.182310
    11  H    0.144990
    12  H    0.130813
    13  H    0.139036
    14  H    0.133324
    15  H    0.155256
    16  H    0.162602
    17  H    0.112903
    18  H    0.115993
    19  H    0.109813
    20  H    0.159155
    21  H    0.113906
    22  C   -0.083889
    23  H    0.123855
    24  H    0.142997
    25  C    0.087616
    26  H    0.074982
    27  H    0.109506
    28  O   -0.487096
    29  C   -0.060161
    30  H    0.117001
    31  H    0.099061
    32  H    0.088908
 Sum of Mulliken atomic charges =   0.00000
 Mulliken charges with hydrogens summed into heavy atoms:
              1
     1  C    0.011078
     2  C    0.567091
     3  O   -0.520038
     4  N   -0.441587
     5  C    0.161224
     6  C    0.576787
     7  O   -0.529864
     8  N   -0.431822
     9  C    0.193788
    10  C    0.200565
    22  C    0.182962
    25  C    0.272104
    28  O   -0.487096
    29  C    0.244809
 Sum of Mulliken charges with hydrogens summed into heavy atoms =   0.00000
 Electronic spatial extent (au):  <R**2>=           3351.5707
 Charge=              0.0000 electrons
 Dipole moment (field-independent basis, Debye):
    X=              0.7833    Y=             -0.6249    Z=             -2.4930  Tot=              2.6868
 Quadrupole moment (field-independent basis, Debye-Ang):
   XX=            -79.8712   YY=            -91.0643   ZZ=            -84.8447
   XY=              5.1157   XZ=              0.1705   YZ=              8.1898
 Traceless Quadrupole moment (field-independent basis, Debye-Ang):
   XX=              5.3889   YY=             -5.8042   ZZ=              0.4154
   XY=              5.1157   XZ=              0.1705   YZ=              8.1898
 Octapole moment (field-independent basis, Debye-Ang**2):
  XXX=            -14.3614  YYY=            -28.9187  ZZZ=             -0.5921  XYY=             32.7913
  XXY=            -17.1630  XXZ=            -13.5331  XZZ=              2.4025  YZZ=              9.2977
  YYZ=            -10.4072  XYZ=             -3.7356
 Hexadecapole moment (field-independent basis, Debye-Ang**3):
 XXXX=          -2070.5738 YYYY=          -1727.4981 ZZZZ=           -476.9049 XXXY=            -38.9281
 XXXZ=            -12.9356 YYYX=             49.5480 YYYZ=             18.5482 ZZZX=              4.9647
 ZZZY=              6.0033 XXYY=           -591.8381 XXZZ=           -430.5043 YYZZ=           -369.6669
 XXYZ=             28.0147 YYXZ=             -2.7784 ZZXY=            -10.7750
 N-N= 9.851052847195D+02 E-N=-3.575835224614D+03  KE= 6.826239197715D+02
 Calling FoFJK, ICntrl=      2127 FMM=F ISym2X=0 I1Cent= 0 IOpClX= 0 NMat=1 NMatS=1 NMatT=0.
 ***** Axes restored to original set *****
 -------------------------------------------------------------------
 Center     Atomic                   Forces (Hartrees/Bohr)
 Number     Number              X              Y              Z
 -------------------------------------------------------------------
      1        6          -0.000004948    0.000005372    0.000001014
      2        6          -0.000693641   -0.001086639   -0.002034061
      3        8          -0.000001162   -0.000003637    0.000000995
      4        7           0.000533911    0.001859347    0.002304379
      5        6           0.001318819   -0.001527491    0.001269173
      6        6          -0.001168182    0.000751759   -0.001555566
      7        8           0.000007453   -0.000007891    0.000005041
      8        7           0.000005398   -0.000001670    0.000007080
      9        6           0.000002166   -0.000005094    0.000001643
     10        6           0.000003016   -0.000003217   -0.000000529
     11        1          -0.000004891    0.000000650   -0.000000390
     12        1          -0.000002049    0.000001076    0.000000505
     13        1          -0.000003561    0.000001315   -0.000001606
     14        1          -0.000001243   -0.000000417   -0.000001159
     15        1          -0.000000519   -0.000003618   -0.000000865
     16        1          -0.000001034    0.000000012    0.000000160
     17        1          -0.000000528   -0.000003161   -0.000001057
     18        1           0.000000813   -0.000004168   -0.000000263
     19        1           0.000002990   -0.000003984    0.000000720
     20        1           0.000004043   -0.000003869   -0.000000085
     21        1           0.000003197   -0.000004501   -0.000000013
     22        6          -0.000008982    0.000007295    0.000000661
     23        1          -0.000001078    0.000004646    0.000002687
     24        1          -0.000000050    0.000002372    0.000002775
     25        6           0.000002753    0.000002322   -0.000005171
     26        1           0.000000744    0.000001268   -0.000000295
     27        1           0.000000307   -0.000000791    0.000001276
     28        8          -0.000001925    0.000001963    0.000000584
     29        6          -0.000000612    0.000010281    0.000000840
     30        1           0.000002729    0.000005904    0.000001896
     31        1           0.000003638    0.000001091    0.000000276
     32        1           0.000002428    0.000003476   -0.000000646
 -------------------------------------------------------------------
 Cartesian Forces:  Max     0.002304379 RMS     0.000509141

 GradGradGradGradGradGradGradGradGradGradGradGradGradGradGradGradGradGrad
 Berny optimization.
 Internal  Forces:  Max     0.002078527 RMS     0.000281731
 Search for a local minimum.
 Step number   1 out of a maximum of  155 on scan point     1 out of    37
 All quantities printed in internal units (Hartrees-Bohrs-Radians)
 Mixed Optimization -- En-DIIS/RFO-DIIS
 Second derivative matrix not updated -- first step.
 ITU=  0
     Eigenvalues ---    0.00346   0.00487   0.00760   0.00823   0.00935
     Eigenvalues ---    0.00943   0.01089   0.01090   0.01261   0.01509
     Eigenvalues ---    0.01524   0.01972   0.02101   0.02849   0.04068
     Eigenvalues ---    0.05435   0.05489   0.05874   0.06443   0.06924
     Eigenvalues ---    0.07203   0.07467   0.07500   0.07535   0.07641
     Eigenvalues ---    0.09529   0.09824   0.10038   0.10513   0.10809
     Eigenvalues ---    0.11025   0.12957   0.13552   0.16000   0.16000
     Eigenvalues ---    0.16000   0.16000   0.16000   0.16000   0.16000
     Eigenvalues ---    0.16000   0.16000   0.16000   0.16000   0.16000
     Eigenvalues ---    0.21943   0.21994   0.22037   0.24209   0.24607
     Eigenvalues ---    0.24994   0.24995   0.24997   0.24999   0.25000
     Eigenvalues ---    0.25000   0.25000   0.28949   0.29265   0.30259
     Eigenvalues ---    0.33240   0.33503   0.33608   0.33742   0.33917
     Eigenvalues ---    0.33949   0.33954   0.34043   0.34185   0.34274
     Eigenvalues ---    0.34447   0.34469   0.34537   0.34578   0.34888
     Eigenvalues ---    0.34949   0.35002   0.35026   0.36074   0.36264
     Eigenvalues ---    0.37318   0.37390   0.43407   0.43587   0.49321
     Eigenvalues ---    0.51162   0.90490   0.909331000.000001000.00000
     Eigenvalues --- 1000.000001000.000001000.000001000.000001000.00000
     Eigenvalues --- 1000.000001000.000001000.000001000.000001000.00000
     Eigenvalues --- 1000.000001000.000001000.000001000.000001000.00000
     Eigenvalues --- 1000.000001000.000001000.000001000.000001000.00000
     Eigenvalues --- 1000.000001000.000001000.000001000.000001000.00000
     Eigenvalues --- 1000.000001000.000001000.000001000.000001000.00000
     Eigenvalues --- 1000.000001000.000001000.000001000.000001000.00000
     Eigenvalues --- 1000.000001000.000001000.000001000.000001000.00000
     Eigenvalues --- 1000.000001000.000001000.000001000.000001000.00000
     Eigenvalues --- 1000.000001000.000001000.000001000.000001000.00000
     Eigenvalues --- 1000.000001000.000001000.000001000.000001000.00000
 RFO step:  Lambda= 0.00000000D+00 EMin= 3.46373668D-03
 Linear search not attempted -- first point.
 Iteration  1 RMS(Cart)=  0.00020039 RMS(Int)=  0.00000000
 Iteration  2 RMS(Cart)=  0.00000001 RMS(Int)=  0.00000000
 Iteration  1 RMS(Cart)=  0.00000000 RMS(Int)=  0.00000000
 Variable       Old X    -DE/DX   Delta X   Delta X   Delta X     New X
                                 (Linear)    (Quad)   (Total)
    R1        2.87449   0.00000   0.00000   0.00000   0.00000   2.87449
    R2        2.05856   0.00000   0.00000   0.00000   0.00000   2.05856
    R3        2.06583   0.00000   0.00000   0.00000   0.00000   2.06583
    R4        2.07019   0.00000   0.00000   0.00000   0.00000   2.07018
    R5        2.32506   0.00000   0.00000   0.00000   0.00000   2.32505
    R6        2.60557   0.00000   0.00000   0.00001   0.00001   2.60558
    R7        2.77266   0.00000   0.00000   0.00000   0.00000   2.77266
    R8        2.76970  -0.00001   0.00000  -0.00004  -0.00004   2.76966
    R9        2.90109   0.00000   0.00000  -0.00001  -0.00001   2.90109
   R10        2.06870   0.00000   0.00000   0.00000   0.00000   2.06869
   R11        2.05632   0.00000   0.00000  -0.00001  -0.00001   2.05632
   R12        2.32708   0.00001   0.00000   0.00001   0.00001   2.32709
   R13        2.58711  -0.00001   0.00000  -0.00002  -0.00002   2.58708
   R14        2.75370   0.00000   0.00000   0.00000   0.00000   2.75370
   R15        2.75262   0.00000   0.00000   0.00000   0.00000   2.75263
   R16        2.05757   0.00000   0.00000   0.00001   0.00001   2.05758
   R17        2.07407   0.00000   0.00000   0.00000   0.00000   2.07407
   R18        2.07470   0.00000   0.00000   0.00000   0.00000   2.07470
   R19        2.07417   0.00000   0.00000   0.00000   0.00000   2.07417
   R20        2.05672   0.00000   0.00000   0.00000   0.00000   2.05672
   R21        2.07258   0.00000   0.00000   0.00000   0.00000   2.07258
   R22        2.06365   0.00000   0.00000   0.00001   0.00001   2.06366
   R23        2.06546   0.00000   0.00000   0.00001   0.00001   2.06546
   R24        2.89453   0.00000   0.00000   0.00001   0.00001   2.89454
   R25        2.08632   0.00000   0.00000   0.00000   0.00000   2.08632
   R26        2.07768   0.00000   0.00000   0.00001   0.00001   2.07769
   R27        2.67170  -0.00001   0.00000  -0.00001  -0.00001   2.67169
   R28        2.66952   0.00000   0.00000  -0.00001  -0.00001   2.66951
   R29        2.06434   0.00000   0.00000   0.00000   0.00000   2.06434
   R30        2.07997   0.00000   0.00000   0.00001   0.00001   2.07998
   R31        2.08177   0.00000   0.00000   0.00000   0.00000   2.08177
    A1        1.87238   0.00000   0.00000   0.00000   0.00000   1.87238
    A2        1.96946   0.00000   0.00000  -0.00001  -0.00001   1.96945
    A3        1.93528   0.00000   0.00000   0.00001   0.00001   1.93529
    A4        1.91080   0.00000   0.00000   0.00000   0.00000   1.91080
    A5        1.89579   0.00000   0.00000   0.00001   0.00001   1.89580
    A6        1.87911   0.00000   0.00000  -0.00001  -0.00001   1.87909
    A7        2.10388   0.00000   0.00000   0.00000   0.00000   2.10388
    A8        2.05451   0.00000   0.00000   0.00001   0.00001   2.05452
    A9        2.12477   0.00000   0.00000  -0.00001  -0.00001   2.12476
   A10        2.05887  -0.00010   0.00000   0.00000   0.00000   2.05887
   A11        2.15692   0.00028   0.00000   0.00002   0.00002   2.15695
   A12        2.04589  -0.00006   0.00000  -0.00001  -0.00001   2.04587
   A13        1.96575   0.00004   0.00000  -0.00006  -0.00006   1.96570
   A14        1.90624   0.00009   0.00000   0.00001   0.00001   1.90625
   A15        1.87360  -0.00006   0.00000   0.00001   0.00001   1.87361
   A16        1.82899   0.00094   0.00000   0.00002   0.00002   1.82900
   A17        1.98587  -0.00094   0.00000   0.00001   0.00001   1.98588
   A18        1.90169  -0.00003   0.00000   0.00001   0.00001   1.90170
   A19        2.07824   0.00000   0.00000   0.00000   0.00000   2.07823
   A20        2.06509   0.00000   0.00000  -0.00001  -0.00001   2.06508
   A21        2.13969   0.00000   0.00000   0.00001   0.00001   2.13970
   A22        2.19870  -0.00001   0.00000  -0.00002  -0.00002   2.19868
   A23        2.07211   0.00000   0.00000   0.00000   0.00000   2.07211
   A24        2.01218   0.00000   0.00000   0.00002   0.00002   2.01220
   A25        1.96063   0.00000   0.00000   0.00001   0.00001   1.96064
   A26        1.91475   0.00000   0.00000   0.00001   0.00001   1.91476
   A27        1.92583   0.00000   0.00000   0.00000   0.00000   1.92582
   A28        1.88435   0.00000   0.00000   0.00000   0.00000   1.88435
   A29        1.89737   0.00000   0.00000  -0.00001  -0.00001   1.89736
   A30        1.87864   0.00000   0.00000  -0.00001  -0.00001   1.87863
   A31        1.93006   0.00000   0.00000   0.00001   0.00001   1.93007
   A32        1.89508   0.00000   0.00000   0.00000   0.00000   1.89509
   A33        1.92390   0.00000   0.00000   0.00000   0.00000   1.92390
   A34        1.91211   0.00000   0.00000  -0.00001  -0.00001   1.91210
   A35        1.88757   0.00000   0.00000   0.00000   0.00000   1.88757
   A36        1.91516   0.00000   0.00000   0.00000   0.00000   1.91516
   A37        1.92696   0.00000   0.00000   0.00001   0.00001   1.92698
   A38        1.89017   0.00000   0.00000   0.00000   0.00000   1.89017
   A39        1.98388  -0.00001   0.00000  -0.00005  -0.00005   1.98383
   A40        1.87280   0.00000   0.00000  -0.00001  -0.00001   1.87279
   A41        1.89153   0.00001   0.00000   0.00004   0.00004   1.89157
   A42        1.89516   0.00000   0.00000   0.00001   0.00001   1.89517
   A43        1.92583   0.00000   0.00000   0.00001   0.00001   1.92584
   A44        1.92344   0.00000   0.00000  -0.00001  -0.00001   1.92344
   A45        1.86186   0.00000   0.00000   0.00000   0.00000   1.86186
   A46        1.88127   0.00000   0.00000   0.00000   0.00000   1.88127
   A47        1.93613   0.00000   0.00000   0.00000   0.00000   1.93614
   A48        1.93589   0.00000   0.00000  -0.00001  -0.00001   1.93588
   A49        1.97175   0.00000   0.00000  -0.00001  -0.00001   1.97173
   A50        1.87197   0.00000   0.00000  -0.00002  -0.00002   1.87195
   A51        1.95029   0.00000   0.00000   0.00001   0.00001   1.95030
   A52        1.95132   0.00000   0.00000   0.00001   0.00001   1.95134
   A53        1.90077   0.00000   0.00000  -0.00001  -0.00001   1.90077
   A54        1.89875   0.00000   0.00000   0.00000   0.00000   1.89876
   A55        1.88964   0.00000   0.00000   0.00000   0.00000   1.88964
    D1       -0.15779   0.00000   0.00000  -0.00002  -0.00002  -0.15781
    D2        2.97572   0.00000   0.00000  -0.00004  -0.00004   2.97568
    D3       -2.26378   0.00000   0.00000  -0.00002  -0.00002  -2.26380
    D4        0.86973   0.00000   0.00000  -0.00003  -0.00003   0.86970
    D5        1.90978   0.00000   0.00000  -0.00001  -0.00001   1.90977
    D6       -1.23989   0.00000   0.00000  -0.00002  -0.00002  -1.23991
    D7        2.98516   0.00033   0.00000   0.00007   0.00007   2.98523
    D8        0.07143  -0.00033   0.00000   0.00000   0.00000   0.07142
    D9       -0.16462   0.00033   0.00000   0.00005   0.00005  -0.16456
   D10       -3.07835  -0.00033   0.00000  -0.00002  -0.00002  -3.07837
   D11        2.24571  -0.00208   0.00000   0.00000   0.00000   2.24571
   D12       -2.01299  -0.00084   0.00000  -0.00001  -0.00001  -2.01300
   D13        0.04639  -0.00086   0.00000   0.00002   0.00002   0.04641
   D14       -1.10912  -0.00141   0.00000   0.00007   0.00007  -1.10905
   D15        0.91536  -0.00017   0.00000   0.00006   0.00006   0.91543
   D16        2.97474  -0.00019   0.00000   0.00009   0.00009   2.97483
   D17        0.46177   0.00033   0.00000   0.00001   0.00001   0.46178
   D18        2.50751   0.00033   0.00000   0.00000   0.00000   2.50751
   D19       -1.66801   0.00033   0.00000  -0.00002  -0.00002  -1.66803
   D20       -2.45353  -0.00033   0.00000  -0.00006  -0.00006  -2.45359
   D21       -0.40779  -0.00033   0.00000  -0.00007  -0.00007  -0.40786
   D22        1.69987  -0.00033   0.00000  -0.00009  -0.00009   1.69978
   D23        1.65771   0.00049   0.00000  -0.00008  -0.00008   1.65763
   D24       -1.46442   0.00050   0.00000   0.00000   0.00000  -1.46442
   D25       -0.41255  -0.00022   0.00000  -0.00008  -0.00008  -0.41263
   D26        2.74850  -0.00021   0.00000   0.00001   0.00001   2.74851
   D27       -2.48809  -0.00028   0.00000  -0.00011  -0.00011  -2.48820
   D28        0.67296  -0.00028   0.00000  -0.00002  -0.00002   0.67294
   D29        0.02370   0.00000   0.00000   0.00000   0.00000   0.02371
   D30       -3.14017   0.00000   0.00000   0.00000   0.00000  -3.14017
   D31       -3.09770   0.00000   0.00000   0.00009   0.00009  -3.09761
   D32        0.02161   0.00000   0.00000   0.00009   0.00009   0.02169
   D33        0.06019   0.00000   0.00000   0.00003   0.00003   0.06022
   D34        2.15618   0.00000   0.00000   0.00004   0.00004   2.15622
   D35       -2.06004   0.00000   0.00000   0.00003   0.00003  -2.06001
   D36       -3.05979   0.00000   0.00000   0.00003   0.00003  -3.05976
   D37       -0.96380   0.00000   0.00000   0.00004   0.00004  -0.96376
   D38        1.10316   0.00000   0.00000   0.00004   0.00004   1.10320
   D39       -2.04456   0.00000   0.00000   0.00000   0.00000  -2.04456
   D40        0.05384   0.00000   0.00000   0.00000   0.00000   0.05384
   D41        2.15225   0.00000   0.00000   0.00000   0.00000   2.15225
   D42        1.07709   0.00000   0.00000   0.00000   0.00000   1.07709
   D43       -3.10770   0.00000   0.00000   0.00000   0.00000  -3.10770
   D44       -1.00929   0.00000   0.00000  -0.00001  -0.00001  -1.00929
   D45        0.90299   0.00000   0.00000   0.00009   0.00009   0.90308
   D46       -1.17261   0.00000   0.00000   0.00008   0.00008  -1.17253
   D47        3.00761   0.00000   0.00000   0.00010   0.00010   3.00771
   D48       -1.24630   0.00000   0.00000   0.00008   0.00008  -1.24622
   D49        2.96128   0.00000   0.00000   0.00007   0.00007   2.96135
   D50        0.85831   0.00000   0.00000   0.00009   0.00009   0.85840
   D51        3.00786   0.00000   0.00000   0.00006   0.00006   3.00792
   D52        0.93225   0.00000   0.00000   0.00005   0.00005   0.93230
   D53       -1.17072   0.00000   0.00000   0.00007   0.00007  -1.17065
   D54        3.04691   0.00000   0.00000   0.00003   0.00003   3.04694
   D55       -1.13828   0.00000   0.00000   0.00005   0.00005  -1.13823
   D56        0.95194   0.00000   0.00000   0.00005   0.00005   0.95199
   D57       -3.13558   0.00000   0.00000  -0.00001  -0.00001  -3.13559
   D58       -1.05365   0.00000   0.00000  -0.00002  -0.00002  -1.05367
   D59        1.06754   0.00000   0.00000   0.00000   0.00000   1.06754
         Item               Value     Threshold  Converged?
 Maximum Force            0.000014     0.000450     YES
 RMS     Force            0.000003     0.000300     YES
 Maximum Displacement     0.000798     0.001800     YES
 RMS     Displacement     0.000200     0.001200     YES
 Predicted change in Energy=-2.586425D-09
 Optimization completed.
    -- Stationary point found.
                           ----------------------------
                           !   Optimized Parameters   !
                           ! (Angstroms and Degrees)  !
 --------------------------                            --------------------------
 ! Name  Definition              Value          Derivative Info.                !
 --------------------------------------------------------------------------------
 ! R1    R(1,2)                  1.5211         -DE/DX =    0.0                 !
 ! R2    R(1,11)                 1.0893         -DE/DX =    0.0                 !
 ! R3    R(1,12)                 1.0932         -DE/DX =    0.0                 !
 ! R4    R(1,13)                 1.0955         -DE/DX =    0.0                 !
 ! R5    R(2,3)                  1.2304         -DE/DX =    0.0                 !
 ! R6    R(2,4)                  1.3788         -DE/DX =    0.0                 !
 ! R7    R(4,5)                  1.4672         -DE/DX =    0.0                 !
 ! R8    R(4,22)                 1.4657         -DE/DX =    0.0                 !
 ! R9    R(5,6)                  1.5352         -DE/DX =    0.0                 !
 ! R10   R(5,14)                 1.0947         -DE/DX =    0.0                 !
 ! R11   R(5,15)                 1.0882         -DE/DX =    0.0                 !
 ! R12   R(6,7)                  1.2314         -DE/DX =    0.0                 !
 ! R13   R(6,8)                  1.369          -DE/DX =    0.0                 !
 ! R14   R(8,9)                  1.4572         -DE/DX =    0.0                 !
 ! R15   R(8,10)                 1.4566         -DE/DX =    0.0                 !
 ! R16   R(9,16)                 1.0888         -DE/DX =    0.0                 !
 ! R17   R(9,17)                 1.0976         -DE/DX =    0.0                 !
 ! R18   R(9,18)                 1.0979         -DE/DX =    0.0                 !
 ! R19   R(10,19)                1.0976         -DE/DX =    0.0                 !
 ! R20   R(10,20)                1.0884         -DE/DX =    0.0                 !
 ! R21   R(10,21)                1.0968         -DE/DX =    0.0                 !
 ! R22   R(22,23)                1.092          -DE/DX =    0.0                 !
 ! R23   R(22,24)                1.093          -DE/DX =    0.0                 !
 ! R24   R(22,25)                1.5317         -DE/DX =    0.0                 !
 ! R25   R(25,26)                1.104          -DE/DX =    0.0                 !
 ! R26   R(25,27)                1.0995         -DE/DX =    0.0                 !
 ! R27   R(25,28)                1.4138         -DE/DX =    0.0                 !
 ! R28   R(28,29)                1.4126         -DE/DX =    0.0                 !
 ! R29   R(29,30)                1.0924         -DE/DX =    0.0                 !
 ! R30   R(29,31)                1.1007         -DE/DX =    0.0                 !
 ! R31   R(29,32)                1.1016         -DE/DX =    0.0                 !
 ! A1    A(2,1,11)             107.2794         -DE/DX =    0.0                 !
 ! A2    A(2,1,12)             112.8419         -DE/DX =    0.0                 !
 ! A3    A(2,1,13)             110.8836         -DE/DX =    0.0                 !
 ! A4    A(11,1,12)            109.4809         -DE/DX =    0.0                 !
 ! A5    A(11,1,13)            108.6208         -DE/DX =    0.0                 !
 ! A6    A(12,1,13)            107.6649         -DE/DX =    0.0                 !
 ! A7    A(1,2,3)              120.5432         -DE/DX =    0.0                 !
 ! A8    A(1,2,4)              117.7148         -DE/DX =    0.0                 !
 ! A9    A(3,2,4)              121.7404         -DE/DX =    0.0                 !
 ! A10   A(2,4,5)              117.9644         -DE/DX =   -0.0001              !
 ! A11   A(2,4,22)             123.5825         -DE/DX =    0.0003              !
 ! A12   A(5,4,22)             117.2207         -DE/DX =   -0.0001              !
 ! A13   A(4,5,6)              112.6294         -DE/DX =    0.0                 !
 ! A14   A(4,5,14)             109.2196         -DE/DX =    0.0001              !
 ! A15   A(4,5,15)             107.3495         -DE/DX =   -0.0001              !
 ! A16   A(6,5,14)             104.7931         -DE/DX =    0.0009              !
[...]
 ! D43   D(9,8,10,20)          172.458          -DE/DX =    0.0                 !
 ! D44   D(9,8,10,21)          -67.6482         -DE/DX =    0.0                 !
 ! D45   D(4,22,25,26)          56.1264         -DE/DX =    0.0                 !
 ! D46   D(4,22,25,27)         -62.344          -DE/DX =    0.0                 !
 ! D47   D(4,22,25,28)         176.6307         -DE/DX =    0.0                 !
 ! D48   D(23,22,25,26)        -67.7352         -DE/DX =    0.0                 !
 ! D49   D(23,22,25,27)        173.7944         -DE/DX =    0.0                 !
 ! D50   D(23,22,25,28)         52.7691         -DE/DX =    0.0                 !
 ! D51   D(24,22,25,26)        177.0275         -DE/DX =    0.0                 !
 ! D52   D(24,22,25,27)         58.5571         -DE/DX =    0.0                 !
 ! D53   D(24,22,25,28)        -62.4682         -DE/DX =    0.0                 !
 ! D54   D(22,25,28,29)        177.5778         -DE/DX =    0.0                 !
 ! D55   D(26,25,28,29)        -62.2284         -DE/DX =    0.0                 !
 ! D56   D(27,25,28,29)         57.3699         -DE/DX =    0.0                 !
 ! D57   D(25,28,29,30)       -179.7806         -DE/DX =    0.0                 !
 ! D58   D(25,28,29,31)        -60.4995         -DE/DX =    0.0                 !
 ! D59   D(25,28,29,32)         60.9966         -DE/DX =    0.0                 !
 --------------------------------------------------------------------------------
 Iteration  1 RMS(Cart)=  0.04289083 RMS(Int)=  0.01111265
 Iteration  2 RMS(Cart)=  0.00113943 RMS(Int)=  0.01110038
 Iteration  3 RMS(Cart)=  0.00000522 RMS(Int)=  0.01110038
 Iteration  4 RMS(Cart)=  0.00000024 RMS(Int)=  0.01110038
 Iteration  1 RMS(Cart)=  0.02705813 RMS(Int)=  0.00681438
 Iteration  2 RMS(Cart)=  0.01792434 RMS(Int)=  0.00752784
 Iteration  3 RMS(Cart)=  0.01220491 RMS(Int)=  0.00859106
 Iteration  4 RMS(Cart)=  0.00843841 RMS(Int)=  0.00946433
 Iteration  5 RMS(Cart)=  0.00588126 RMS(Int)=  0.01010953
 Iteration  6 RMS(Cart)=  0.00411580 RMS(Int)=  0.01057222
 Iteration  7 RMS(Cart)=  0.00288619 RMS(Int)=  0.01090055
 Iteration  8 RMS(Cart)=  0.00202597 RMS(Int)=  0.01113251
 Iteration  9 RMS(Cart)=  0.00142285 RMS(Int)=  0.01129603
 Iteration 10 RMS(Cart)=  0.00099951 RMS(Int)=  0.01141117
 Iteration 11 RMS(Cart)=  0.00070221 RMS(Int)=  0.01149218
 Iteration 12 RMS(Cart)=  0.00049337 RMS(Int)=  0.01154915
 Iteration 13 RMS(Cart)=  0.00034665 RMS(Int)=  0.01158921
 Iteration 14 RMS(Cart)=  0.00024356 RMS(Int)=  0.01161737
 Iteration 15 RMS(Cart)=  0.00017113 RMS(Int)=  0.01163716
 Iteration 16 RMS(Cart)=  0.00012024 RMS(Int)=  0.01165107
 Iteration 17 RMS(Cart)=  0.00008449 RMS(Int)=  0.01166084
 Iteration 18 RMS(Cart)=  0.00005936 RMS(Int)=  0.01166771
 Iteration 19 RMS(Cart)=  0.00004171 RMS(Int)=  0.01167254
 Iteration 20 RMS(Cart)=  0.00002931 RMS(Int)=  0.01167593
 Iteration 21 RMS(Cart)=  0.00002059 RMS(Int)=  0.01167831
 Iteration 22 RMS(Cart)=  0.00001447 RMS(Int)=  0.01167999
 Iteration 23 RMS(Cart)=  0.00001017 RMS(Int)=  0.01168116
 Iteration 24 RMS(Cart)=  0.00000714 RMS(Int)=  0.01168199
 Iteration 25 RMS(Cart)=  0.00000502 RMS(Int)=  0.01168257
 Iteration 26 RMS(Cart)=  0.00000353 RMS(Int)=  0.01168298
 Iteration 27 RMS(Cart)=  0.00000248 RMS(Int)=  0.01168326
 Iteration 28 RMS(Cart)=  0.00000174 RMS(Int)=  0.01168347
 Iteration 29 RMS(Cart)=  0.00000122 RMS(Int)=  0.01168361
 Iteration 30 RMS(Cart)=  0.00000086 RMS(Int)=  0.01168371
 GradGradGradGradGradGradGradGradGradGradGradGradGradGradGradGradGradGrad

                          Input orientation:                          
 ---------------------------------------------------------------------
 Center     Atomic      Atomic             Coordinates (Angstroms)
 Number     Number       Type             X           Y           Z
 ---------------------------------------------------------------------
      1          6           0        1.284505    3.003334   -0.446375
      2          6           0       -0.018624    2.450381    0.110222
      3          8           0       -1.036755    3.136040    0.115043
      4          7           0       -0.025564    1.145277    0.575656
      5          6           0       -1.159418    0.731495    1.404790
      6          6           0       -1.919489   -0.552679    1.033171
      7          8           0       -2.515577   -1.145238    1.925437
      8          7           0       -1.723256   -1.129429   -0.205733
      9          6           0       -1.622707   -0.330098   -1.429787
     10          6           0       -2.293626   -2.459645   -0.400389
     11          1           0        1.047529    3.936173   -0.956789
     12          1           0        1.777270    2.320789   -1.143469
     13          1           0        1.991142    3.219667    0.362701
     14          1           0       -0.914715    0.583898    2.461530
     15          1           0       -1.834928    1.589010    1.336216
     16          1           0       -1.507142    0.727446   -1.203332
     17          1           0       -0.776025   -0.658655   -2.044652
     18          1           0       -2.539852   -0.445471   -2.023513
     19          1           0       -1.744141   -2.964966   -1.201427
     20          1           0       -2.207460   -3.028084    0.525253
     21          1           0       -3.356098   -2.413689   -0.677977
     22          6           0        1.217728    0.377415    0.723643
     23          1           0        2.072545    1.044818    0.857254
     24          1           0        1.146761   -0.222997    1.635069
     25          6           0        1.515938   -0.557423   -0.451110
     26          1           0        1.541440    0.010548   -1.397114
     27          1           0        0.723760   -1.314856   -0.542482
     28          8           0        2.770539   -1.152591   -0.187570
     29          6           0        3.154344   -2.090977   -1.171441
     30          1           0        4.126072   -2.492407   -0.875234
     31          1           0        2.434514   -2.920610   -1.247723
     32          1           0        3.249999   -1.625530   -2.165110
 ---------------------------------------------------------------------
                    Distance matrix (angstroms):
                    1          2          3          4          5
     1  C    0.000000
     2  C    1.521086   0.000000
     3  O    2.391871   1.227494   0.000000
     4  N    2.492630   1.385631   2.279871   0.000000
     5  C    3.815865   2.435546   2.731360   1.464344   0.000000
     6  C    5.009976   3.671987   3.902412   2.584439   1.537827
     7  O    6.105470   4.739014   4.877886   3.642599   2.373260
     8  N    5.117056   3.977517   4.332252   2.943979   2.524824
     9  C    4.531087   3.560306   3.839786   2.957939   3.062099
    10  C    6.530641   5.435505   5.758219   4.369466   3.837770
    11  H    1.089435   2.117256   2.476546   3.359913   4.551662
    12  H    1.092989   2.194031   3.188609   2.754529   4.200431
    13  H    1.095783   2.166727   3.039159   2.900956   4.147647
    14  H    4.375631   3.132952   3.469052   2.159226   1.094697
    15  H    3.861192   2.354566   2.126416   2.012250   1.093777
    16  H    3.680482   2.628615   2.785804   2.352543   2.631203
    17  H    4.495602   3.857881   4.374011   3.268544   3.738738
    18  H    5.385844   4.392650   4.433953   3.950671   3.878674
    19  H    6.735236   5.832994   6.281382   4.796418   4.560493
    20  H    7.036752   5.914122   6.287706   4.709581   4.000802
    21  H    7.136734   5.951400   6.066937   5.032921   4.365261
    22  C    2.875561   2.490389   3.614290   1.468770   2.498030
    23  H    2.481178   2.628051   3.819925   2.119303   3.292954
    24  H    3.841952   3.290931   4.285014   2.090185   2.506500
    25  C    3.568273   3.422990   4.525311   2.515882   3.501886
    26  H    3.150664   3.264758   4.324628   2.763138   3.957911
    27  H    4.355506   3.892835   4.831379   2.804277   3.394964
    28  O    4.421198   4.566127   5.742770   3.698770   4.640037
    29  C    5.474854   5.686327   6.822174   4.861841   5.762973
    30  H    6.201741   6.525395   7.701613   5.707355   6.597610
    31  H    6.087512   6.058832   7.112654   5.090003   5.769753
    32  H    5.314470   5.698603   6.800581   5.091019   6.143509
                    6          7          8          9         10
     6  C    0.000000
     7  O    1.225800   0.000000
     8  N    1.380591   2.273743   0.000000
     9  C    2.490740   3.566399   1.465384   0.000000
    10  C    2.414869   2.680745   1.460372   2.458610   0.000000
    11  H    5.736979   6.842783   5.822513   5.055191   7.237360
    12  H    5.163391   6.313483   5.003703   4.320767   6.322730
    13  H    5.474775   6.465683   5.747565   5.373430   7.155147
    14  H    2.083648   2.416623   3.271624   4.059432   4.399447
    15  H    2.164675   2.878641   3.127297   3.373246   4.429199
    16  H    2.609731   3.783263   2.118937   1.087675   3.379471
    17  H    3.285078   4.361698   2.121438   1.096758   2.872330
    18  H    3.120843   4.010544   2.106882   1.098624   2.598472
    19  H    3.292918   3.699163   2.088310   2.647532   1.094964
    20  H    2.543332   2.366551   2.091336   3.382787   1.089661
    21  H    2.907788   3.015495   2.130378   2.812688   1.099096
    22  C    3.286794   4.207178   3.432740   3.633993   4.652093
    23  H    4.303403   5.195018   4.501710   4.558052   5.738151
    24  H    3.142110   3.787817   3.528054   4.132162   4.580605
    25  C    3.742362   4.716632   3.298451   3.295539   4.258380
    26  H    4.266326   5.369783   3.657482   3.182598   4.669373
    27  H    3.170231   4.075868   2.477029   2.694989   3.230380
    28  O    4.883284   5.692791   4.493891   4.638987   5.234448
    29  C    5.741991   6.529401   5.064400   5.097808   5.514600
    30  H    6.629733   7.332811   6.043226   6.166974   6.437319
    31  H    5.455907   6.142011   4.645549   4.817151   4.825533
    32  H    6.172813   7.085557   5.368290   5.095302   5.877224
                   11         12         13         14         15
    11  H    0.000000
    12  H    1.782368   0.000000
    13  H    1.773370   1.766995   0.000000
    14  H    5.174268   4.822820   4.449311   0.000000
    15  H    4.367563   4.442107   4.271485   1.767307   0.000000
    16  H    4.108900   3.650985   4.571829   3.715210   2.701673
    17  H    5.061743   4.025982   5.337972   4.676414   4.195657
    18  H    5.762465   5.202327   6.297393   4.880192   3.990464
    19  H    7.448422   6.351606   7.392464   5.167170   5.214074
    20  H    7.828938   6.875548   7.529215   4.297298   4.702552
    21  H    7.732426   6.998817   7.836497   4.980199   4.732074
    22  C    3.939235   2.752435   2.967632   2.758659   3.340945
    23  H    3.563894   2.391273   2.231855   3.421968   3.974153
    24  H    4.901660   3.819511   3.766143   2.363006   3.501878
    25  C    4.546154   2.971828   3.892880   3.961586   4.362340
    26  H    3.981000   2.336057   3.687495   4.609833   4.621957
    27  H    5.277289   3.832621   4.794529   3.913305   4.302188
    28  O    5.427336   3.736937   4.475142   4.859446   5.572129
    29  C    6.388371   4.621774   5.648856   6.075416   6.687562
    30  H    7.128163   5.362432   6.222394   6.782859   7.555262
    31  H    7.001703   5.283475   6.363415   6.103890   6.726184
    32  H    6.102741   4.334295   5.608072   6.605468   6.960533
                   16         17         18         19         20
    16  H    0.000000
    17  H    1.778659   0.000000
    18  H    1.764913   1.776789   0.000000
    19  H    3.700011   2.639573   2.767099   0.000000
    20  H    4.193144   3.777249   3.643705   1.788875   0.000000
    21  H    3.682575   3.406570   2.520041   1.782221   1.773305
    22  C    3.355692   3.565382   4.726882   4.863134   4.834118
    23  H    4.142571   4.408767   5.638615   5.906236   5.917533
    24  H    4.000383   4.174596   5.198637   4.890952   4.511208
    25  C    3.369828   2.793334   4.351369   4.121572   4.573964
    26  H    3.137729   2.497555   4.154187   4.437006   5.194519
    27  H    3.095908   2.221816   3.687878   3.040988   3.559110
    28  O    4.781722   4.033713   5.663122   4.969401   5.367128
    29  C    5.447383   4.273388   5.988120   4.975933   5.701393
    30  H    6.496784   5.362904   7.067039   5.898230   6.508606
    31  H    5.370935   4.007380   5.610034   4.179147   4.970203
    32  H    5.393691   4.142248   5.910580   5.259677   6.244123
                   21         22         23         24         25
    21  H    0.000000
    22  C    5.538473   0.000000
    23  H    6.617277   1.092698   0.000000
    24  H    5.515890   1.093722   1.751978   0.000000
    25  C    5.218613   1.530653   2.142149   2.144826   0.000000
    26  H    5.511802   2.176463   2.536525   3.066667   1.103705
    27  H    4.227415   2.170451   3.057211   2.472410   1.099818
    28  O    6.274276   2.362721   2.531295   2.612051   1.413401
    29  C    6.537087   3.665350   3.888329   3.923804   2.356913
    30  H    7.485184   4.387568   4.441897   4.508674   3.276712
    31  H    5.840613   4.030363   4.504062   4.152820   2.657636
    32  H    6.817131   4.060395   4.201409   4.564216   2.661882
                   26         27         28         29         30
    26  H    0.000000
    27  H    1.776426   0.000000
    28  O    2.080042   2.083649   0.000000
    29  C    2.658721   2.627868   1.412756   0.000000
    30  H    3.635584   3.615671   2.026193   1.092310   0.000000
    31  H    3.067832   2.449998   2.088715   1.101029   1.784230
    32  H    2.487115   3.018496   2.089071   1.101439   1.784029
                   31         32
    31  H    0.000000
    32  H    1.784334   0.000000
 Stoichiometry    C9H18N2O3
 Framework group  C1[X(C9H18N2O3)]
 Deg. of freedom    90
 Full point group                 C1      NOp   1
 Largest Abelian subgroup         C1      NOp   1
 Largest concise Abelian subgroup C1      NOp   1
                         Standard orientation:                         
 ---------------------------------------------------------------------
 Center     Atomic      Atomic             Coordinates (Angstroms)
 Number     Number       Type             X           Y           Z
 ---------------------------------------------------------------------
      1          6           0        1.865659    2.682002   -0.488344
      2          6           0        0.406443    2.358536   -0.205926
      3          8           0       -0.481449    3.140395   -0.533167
      4          7           0        0.113662    1.145704    0.396811
      5          6           0       -1.225480    0.982009    0.966205
      6          6           0       -2.050064   -0.256191    0.576548
      7          8           0       -2.909966   -0.642746    1.359957
      8          7           0       -1.657460   -1.029037   -0.497976
      9          6           0       -1.170887   -0.436693   -1.746866
     10          6           0       -2.345972   -2.305994   -0.665361
     11          1           0        1.882347    3.547753   -1.149452
     12          1           0        2.405743    1.854956   -0.956244
     13          1           0        2.391729    2.941344    0.437254
     14          1           0       -1.251309    0.969125    2.060521
     15          1           0       -1.742723    1.885844    0.631707
     16          1           0       -0.965533    0.624745   -1.627638
     17          1           0       -0.259719   -0.940624   -2.091401
     18          1           0       -1.935112   -0.542458   -2.529011
     19          1           0       -1.703069   -2.980299   -1.240630
     20          1           0       -2.552634   -2.735564    0.314497
     21          1           0       -3.300232   -2.190617   -1.198362
     22          6           0        1.172335    0.282198    0.936119
     23          1           0        2.057619    0.868477    1.194071
     24          1           0        0.813074   -0.164414    1.867622
     25          6           0        1.599240   -0.843837   -0.008705
     26          1           0        1.918110   -0.429509   -0.980723
     27          1           0        0.752277   -1.518902   -0.199859
     28          8           0        2.666214   -1.521475    0.623810
     29          6           0        3.131532   -2.631465   -0.115973
     30          1           0        3.945111   -3.084008    0.455371
     31          1           0        2.340903   -3.382864   -0.266209
     32          1           0        3.514775   -2.332433   -1.104342
 ---------------------------------------------------------------------
 Rotational constants (GHZ):      0.6408371      0.5698331      0.3663401
 Standard basis: 6-31G(d,p) (6D, 7F)
 There are   300 symmetry adapted basis functions of A   symmetry.
 Integral buffers will be    131072 words long.
 Raffenetti 2 integral format.
 Two-electron integral symmetry is turned on.
   300 basis functions,   518 primitive gaussians,   300 cartesian basis functions
    55 alpha electrons       55 beta electrons
       nuclear repulsion energy       990.9018730838 Hartrees.
 NAtoms=   32 NActive=   32 NUniq=   32 SFac= 1.00D+00 NAtFMM=   60 NAOKFM=F Big=F
 One-electron integrals computed using PRISM.
 NBasis=   300 RedAO= T  NBF=   300
 NBsUse=   300 1.00D-06 NBFU=   300
 Initial guess read from the read-write file.
 B after Tr=     0.000000    0.000000    0.000000
         Rot=    1.000000    0.000000    0.000000    0.000000 Ang=   0.00 deg.
 Initial guess orbital symmetries:
       Occupied  (A) (A) (A) (A) (A) (A) (A) (A) (A) (A) (A) (A)
                 (A) (A) (A) (A) (A) (A) (A) (A) (A) (A) (A) (A)
                 (A) (A) (A) (A) (A) (A) (A) (A) (A) (A) (A) (A)
                 (A) (A) (A) (A) (A) (A) (A) (A) (A) (A) (A) (A)
                 (A) (A) (A) (A) (A) (A) (A)
       Virtual   (A) (A) (A) (A) (A) (A) (A) (A) (A) (A) (A) (A)
                 (A) (A) (A) (A) (A) (A) (A) (A) (A) (A) (A) (A)
                 (A) (A) (A) (A) (A) (A) (A) (A) (A) (A) (A) (A)
                 (A) (A) (A) (A) (A) (A) (A) (A) (A) (A) (A) (A)
                 (A) (A) (A) (A) (A) (A) (A) (A) (A) (A) (A) (A)
                 (A) (A) (A) (A) (A) (A) (A) (A) (A) (A) (A) (A)
                 (A) (A) (A) (A) (A) (A) (A) (A) (A) (A) (A) (A)
                 (A) (A) (A) (A) (A) (A) (A) (A) (A) (A) (A) (A)
                 (A) (A) (A) (A) (A) (A) (A) (A) (A) (A) (A) (A)
                 (A) (A) (A) (A) (A) (A) (A) (A) (A) (A) (A) (A)
                 (A) (A) (A) (A) (A) (A) (A) (A) (A) (A) (A) (A)
                 (A) (A) (A) (A) (A) (A) (A) (A) (A) (A) (A) (A)
                 (A) (A) (A) (A) (A) (A) (A) (A) (A) (A) (A) (A)
                 (A) (A) (A) (A) (A) (A) (A) (A) (A) (A) (A) (A)
                 (A) (A) (A) (A) (A) (A) (A) (A) (A) (A) (A) (A)
                 (A) (A) (A) (A) (A) (A) (A) (A) (A) (A) (A) (A)
                 (A) (A) (A) (A) (A) (A) (A) (A) (A) (A) (A) (A)
                 (A) (A) (A) (A) (A) (A) (A) (A) (A) (A) (A) (A)
                 (A) (A) (A) (A) (A) (A) (A) (A) (A) (A) (A) (A)
                 (A) (A) (A) (A) (A) (A) (A) (A) (A) (A) (A) (A)
                 (A) (A) (A) (A) (A)
 Harris functional with IExCor=  402 diagonalized for initial guess.
 ExpMin= 1.61D-01 ExpMax= 5.48D+03 ExpMxC= 8.25D+02 IAcc=1 IRadAn=         1 AccDes= 0.00D+00
 HarFok:  IExCor=  402 AccDes= 0.00D+00 IRadAn=         1 IDoV= 1
 ScaDFX=  1.000000  1.000000  1.000000  1.000000
 FoFCou: FMM=F IPFlag=           0 FMFlag=      100000 FMFlg1=           0
         NFxFlg=           0 DoJE=T BraDBF=F KetDBF=T FulRan=T
         Omega=  0.000000  0.000000  1.000000  0.000000  0.000000 ICntrl=     500 IOpCl=  0
         NMat0=    1 NMatS0=    1 NMatT0=    0 NMatD0=    1 NMtDS0=    0 NMtDT0=    0
         I1Cent=           4 NGrid=           0.
 Petite list used in FoFCou.
