 Entering Gaussian System, Link 0=/data/opt/apps/g09-C01/g09
 Initial command:
 /data/opt/apps/g09-C01/l1.exe /tmp/g09-tuu61186-1150918c21e64fea8x/Gau-1151051.inp -scrdir=/tmp/g09-tuu61186-1150918c21e64fea8x/
 Entering Link 1 = /data/opt/apps/g09-C01/l1.exe PID=   1151059.
  
 Copyright (c) 1988,1990,1992,1993,1995,1998,2003,2009,2011,
            Gaussian, Inc.  All Rights Reserved.
  
 This is part of the Gaussian(R) 09 program.  It is based on
 the Gaussian(R) 03 system (copyright 2003, Gaussian, Inc.),
 the Gaussian(R) 98 system (copyright 1998, Gaussian, Inc.),
 the Gaussian(R) 94 system (copyright 1995, Gaussian, Inc.),
 the Gaussian 92(TM) system (copyright 1992, Gaussian, Inc.),
 the Gaussian 90(TM) system (copyright 1990, Gaussian, Inc.),
 the Gaussian 88(TM) system (copyright 1988, Gaussian, Inc.),
 the Gaussian 86(TM) system (copyright 1986, Carnegie Mellon
 University), and the Gaussian 82(TM) system (copyright 1983,
 Carnegie Mellon University). Gaussian is a federally registered
 trademark of Gaussian, Inc.
  
 This software contains proprietary and confidential information,
 including trade secrets, belonging to Gaussian, Inc.
  
 This software is provided under written license and may be
 used, copied, transmitted, or stored only in accord with that
 written license.
  
 The following legend is applicable only to US Government
 contracts under FAR:
  
                    RESTRICTED RIGHTS LEGEND
  
 Use, reproduction and disclosure by the US Government is
 subject to restrictions as set forth in subparagraphs (a)
 and (c) of the Commercial Computer Software - Restricted
 Rights clause in FAR 52.227-19.
  
 Gaussian, Inc.
 340 Quinnipiac St., Bldg. 40, Wallingford CT 06492
  
  
 ---------------------------------------------------------------
 Warning -- This program may not be used in any manner that
 competes with the business of Gaussian, Inc. or will provide
 assistance to any competitor of Gaussian, Inc.  The licensee
 of this program is prohibited from giving any competitor of
 Gaussian, Inc. access to this program.  By using this program,
 the user acknowledges that Gaussian, Inc. is engaged in the
 business of creating and licensing software in the field of
 computational chemistry and represents and warrants to the
 licensee that it is not a competitor of Gaussian, Inc. and that
 it will not use this program in any manner prohibited above.
 ---------------------------------------------------------------
  

 Cite this work as:
 Gaussian 09, Revision C.01,
 M. J. Frisch, G. W. Trucks, H. B. Schlegel, G. E. Scuseria, 
 M. A. Robb, J. R. Cheeseman, G. Scalmani, V. Barone, B. Mennucci, 
 G. A. Petersson, H. Nakatsuji, M. Caricato, X. Li, H. P. Hratchian, 
 A. F. Izmaylov, J. Bloino, G. Zheng, J. L. Sonnenberg, M. Hada, 
 M. Ehara, K. Toyota, R. Fukuda, J. Hasegawa, M. Ishida, T. Nakajima, 
 Y. Honda, O. Kitao, H. Nakai, T. Vreven, J. A. Montgomery, Jr., 
 J. E. Peralta, F. Ogliaro, M. Bearpark, J. J. Heyd, E. Brothers, 
 K. N. Kudin, V. N. Staroverov, T. Keith, R. Kobayashi, J. Normand, 
 K. Raghavachari, A. Rendell, J. C. Burant, S. S. Iyengar, J. Tomasi, 
 M. Cossi, N. Rega, J. M. Millam, M. Klene, J. E. Knox, J. B. Cross, 
 V. Bakken, C. Adamo, J. Jaramillo, R. Gomperts, R. E. Stratmann, 
 O. Yazyev, A. J. Austin, R. Cammi, C. Pomelli, J. W. Ochterski, 
 R. L. Martin, K. Morokuma, V. G. Zakrzewski, G. A. Voth, 
 P. Salvador, J. J. Dannenberg, S. Dapprich, A. D. Daniels, 
 O. Farkas, J. B. Foresman, J. V. Ortiz, J. Cioslowski, 
 and D. J. Fox, Gaussian, Inc., Wallingford CT, 2010.
 
 ******************************************
 Gaussian 09:  EM64L-G09RevC.01 23-Sep-2011
                24-Apr-2026 
 ******************************************
 %nprocshared=8
 Will use up to    8 processors via shared memory.
 %mem=14GB
 -----------------------------------
 # opt=modredundant b3lyp/6-31g(d,p)
 -----------------------------------
 1/14=-1,18=120,19=15,26=3,38=1/1,3;
 2/9=110,12=2,17=6,18=5,40=1/2;
 3/5=1,6=6,7=101,11=2,16=1,25=1,30=1,71=1,74=-5/1,2,3;
 4//1;
 5/5=2,38=5/2;
 6/7=2,8=2,9=2,10=2,28=1/1;
 7//1,2,3,16;
 1/14=-1,18=20,19=15/3(2);
 2/9=110/2;
 99//99;
 2/9=110/2;
 3/5=1,6=6,7=101,11=2,16=1,25=1,30=1,71=1,74=-5/1,2,3;
 4/5=5,16=3/1;
 5/5=2,38=5/2;
 7//1,2,3,16;
 1/14=-1,18=20,19=15/3(-5);
 2/9=110/2;
 6/7=2,8=2,9=2,10=2,19=2,28=1/1;
 99/9=1/99;
 ---------------
 QM dihedral opt
 ---------------
 Charge =  0 Multiplicity = 1
 Symbolic Z-Matrix:
 C                     0.71658   2.97861  -0.78685 
 C                    -0.23732   2.02541  -0.08231 
 O                    -1.44249   2.24712  -0.03946 
 N                     0.27667   0.87602   0.48519 
 C                    -0.65463   0.1       1.31237 
 C                    -1.87975  -0.6775    0.77517 
 O                    -2.65665  -1.02847   1.66065 
 N                    -2.06925  -1.03768  -0.5326 
 C                    -1.29732  -0.60511  -1.68662 
 C                    -3.31933  -1.71377  -0.86795 
 H                     0.10745   3.71138  -1.3151 
 H                     1.36988   2.46815  -1.50104 
 H                     1.35318   3.50805  -0.06971 
 H                    -0.06701  -0.64571   1.85486 
 H                    -1.10784   0.75746   2.05903 
 H                    -0.28342  -0.34376  -1.40263 
 H                    -1.25139  -1.4279   -2.40844 
 H                    -1.76062   0.26024  -2.17793 
 H                    -3.11034  -2.6087   -1.46534 
 H                    -3.82276  -1.99358   0.05446 
 H                    -3.97173  -1.05163  -1.45212 
 C                     1.70499   0.62674   0.68196 
 H                     2.28299   1.49488   0.36667 
 H                     1.9129    0.48255   1.74933 
 C                     2.21078  -0.59965  -0.07981 
 H                     2.10244  -0.44314  -1.16707 
 H                     1.61433  -1.49046   0.1813 
 O                     3.56536  -0.77573   0.27323 
 C                     4.16301  -1.88996  -0.35962 
 H                     5.19906  -1.93831  -0.01769 
 H                     3.65544  -2.82995  -0.09398 
 H                     4.15371  -1.7899   -1.45601 
 
 The following ModRedundant input section has been read:
 D       2       4       5       6 F                                           
 D       4       5       6       8 S  36 10.000                                

 GradGradGradGradGradGradGradGradGradGradGradGradGradGradGradGradGradGrad
 Berny optimization.
 Initialization pass.
                           ----------------------------
                           !    Initial Parameters    !
                           ! (Angstroms and Degrees)  !
 --------------------------                            --------------------------
 ! Name  Definition              Value          Derivative Info.                !
 --------------------------------------------------------------------------------
 ! R1    R(1,2)                  1.5215         estimate D2E/DX2                !
 ! R2    R(1,11)                 1.0895         estimate D2E/DX2                !
 ! R3    R(1,12)                 1.0943         estimate D2E/DX2                !
 ! R4    R(1,13)                 1.0954         estimate D2E/DX2                !
 ! R5    R(2,3)                  1.2261         estimate D2E/DX2                !
 ! R6    R(2,4)                  1.3811         estimate D2E/DX2                !
 ! R7    R(4,5)                  1.4676         estimate D2E/DX2                !
 ! R8    R(4,22)                 1.4632         estimate D2E/DX2                !
 ! R9    R(5,6)                  1.5473         estimate D2E/DX2                !
 ! R10   R(5,14)                 1.0935         estimate D2E/DX2                !
 ! R11   R(5,15)                 1.0932         estimate D2E/DX2                !
 ! R12   R(6,7)                  1.2292         estimate D2E/DX2                !
 ! R13   R(6,8)                  1.3696         estimate D2E/DX2                !
 ! R14   R(8,9)                  1.4542         estimate D2E/DX2                !
 ! R15   R(8,10)                 1.4602         estimate D2E/DX2                !
 ! R16   R(9,16)                 1.0849         estimate D2E/DX2                !
 ! R17   R(9,17)                 1.0955         estimate D2E/DX2                !
 ! R18   R(9,18)                 1.0977         estimate D2E/DX2                !
 ! R19   R(10,19)                1.0961         estimate D2E/DX2                !
 ! R20   R(10,20)                1.0875         estimate D2E/DX2                !
 ! R21   R(10,21)                1.0979         estimate D2E/DX2                !
 ! R22   R(22,23)                1.0896         estimate D2E/DX2                !
 ! R23   R(22,24)                1.0969         estimate D2E/DX2                !
 ! R24   R(22,25)                1.5298         estimate D2E/DX2                !
 ! R25   R(25,26)                1.1038         estimate D2E/DX2                !
 ! R26   R(25,27)                1.1034         estimate D2E/DX2                !
 ! R27   R(25,28)                1.4109         estimate D2E/DX2                !
 ! R28   R(28,29)                1.4139         estimate D2E/DX2                !
 ! R29   R(29,30)                1.0921         estimate D2E/DX2                !
 ! R30   R(29,31)                1.1008         estimate D2E/DX2                !
 ! R31   R(29,32)                1.101          estimate D2E/DX2                !
 ! A1    A(2,1,11)             107.1789         estimate D2E/DX2                !
 ! A2    A(2,1,12)             112.5987         estimate D2E/DX2                !
 ! A3    A(2,1,13)             111.3465         estimate D2E/DX2                !
 ! A4    A(11,1,12)            109.3344         estimate D2E/DX2                !
 ! A5    A(11,1,13)            108.4985         estimate D2E/DX2                !
 ! A6    A(12,1,13)            107.806          estimate D2E/DX2                !
 ! A7    A(1,2,3)              121.2742         estimate D2E/DX2                !
 ! A8    A(1,2,4)              118.5774         estimate D2E/DX2                !
 ! A9    A(3,2,4)              120.1277         estimate D2E/DX2                !
 ! A10   A(2,4,5)              115.8178         estimate D2E/DX2                !
 ! A11   A(2,4,22)             124.0798         estimate D2E/DX2                !
 ! A12   A(5,4,22)             116.973          estimate D2E/DX2                !
 ! A13   A(4,5,6)              124.9234         estimate D2E/DX2                !
 ! A14   A(4,5,14)             107.4109         estimate D2E/DX2                !
 ! A15   A(4,5,15)             109.2707         estimate D2E/DX2                !
 ! A16   A(6,5,14)             104.7776         estimate D2E/DX2                !
 ! A17   A(6,5,15)             102.1858         estimate D2E/DX2                !
 ! A18   A(14,5,15)            107.1017         estimate D2E/DX2                !
 ! A19   A(5,6,7)              113.1928         estimate D2E/DX2                !
 ! A20   A(5,6,8)              124.9747         estimate D2E/DX2                !
 ! A21   A(7,6,8)              121.6894         estimate D2E/DX2                !
 ! A22   A(6,8,9)              127.3047         estimate D2E/DX2                !
 ! A23   A(6,8,10)             117.3543         estimate D2E/DX2                !
 ! A24   A(9,8,10)             114.1987         estimate D2E/DX2                !
 ! A25   A(8,9,16)             111.1014         estimate D2E/DX2                !
 ! A26   A(8,9,17)             108.7673         estimate D2E/DX2                !
 ! A27   A(8,9,18)             111.4479         estimate D2E/DX2                !
 ! A28   A(16,9,17)            108.3138         estimate D2E/DX2                !
 ! A29   A(16,9,18)            108.7667         estimate D2E/DX2                !
 ! A30   A(17,9,18)            108.3543         estimate D2E/DX2                !
 ! A31   A(8,10,19)            109.8748         estimate D2E/DX2                !
 ! A32   A(8,10,20)            108.7024         estimate D2E/DX2                !
 ! A33   A(8,10,21)            110.59           estimate D2E/DX2                !
 ! A34   A(19,10,20)           109.9061         estimate D2E/DX2                !
 ! A35   A(19,10,21)           108.404          estimate D2E/DX2                !
 ! A36   A(20,10,21)           109.3553         estimate D2E/DX2                !
 ! A37   A(4,22,23)            110.0706         estimate D2E/DX2                !
 ! A38   A(4,22,24)            109.7713         estimate D2E/DX2                !
 ! A39   A(4,22,25)            113.1017         estimate D2E/DX2                !
 ! A40   A(23,22,24)           106.604          estimate D2E/DX2                !
 ! A41   A(23,22,25)           108.6189         estimate D2E/DX2                !
 ! A42   A(24,22,25)           108.4513         estimate D2E/DX2                !
 ! A43   A(22,25,26)           110.1445         estimate D2E/DX2                !
 ! A44   A(22,25,27)           110.528          estimate D2E/DX2                !
 ! A45   A(22,25,28)           107.0309         estimate D2E/DX2                !
 ! A46   A(26,25,27)           107.1288         estimate D2E/DX2                !
 ! A47   A(26,25,28)           111.0025         estimate D2E/DX2                !
 ! A48   A(27,25,28)           111.0401         estimate D2E/DX2                !
 ! A49   A(25,28,29)           113.0897         estimate D2E/DX2                !
 ! A50   A(28,29,30)           107.2018         estimate D2E/DX2                !
 ! A51   A(28,29,31)           111.716          estimate D2E/DX2                !
 ! A52   A(28,29,32)           111.7481         estimate D2E/DX2                !
 ! A53   A(30,29,31)           108.9095         estimate D2E/DX2                !
 ! A54   A(30,29,32)           108.8951         estimate D2E/DX2                !
 ! A55   A(31,29,32)           108.3016         estimate D2E/DX2                !
 ! D1    D(11,1,2,3)            -8.536          estimate D2E/DX2                !
 ! D2    D(11,1,2,4)           169.8125         estimate D2E/DX2                !
 ! D3    D(12,1,2,3)          -128.8036         estimate D2E/DX2                !
 ! D4    D(12,1,2,4)            49.5449         estimate D2E/DX2                !
 ! D5    D(13,1,2,3)           109.9783         estimate D2E/DX2                !
 ! D6    D(13,1,2,4)           -71.6731         estimate D2E/DX2                !
 ! D7    D(1,2,4,5)            171.4908         estimate D2E/DX2                !
 ! D8    D(1,2,4,22)            12.1569         estimate D2E/DX2                !
 ! D9    D(3,2,4,5)            -10.1412         estimate D2E/DX2                !
 ! D10   D(3,2,4,22)          -169.4751         estimate D2E/DX2                !
 ! D11   D(2,4,5,6)             68.6699         Frozen                          !
 ! D12   D(2,4,5,14)          -168.3067         estimate D2E/DX2                !
 ! D13   D(2,4,5,15)           -52.4502         estimate D2E/DX2                !
 ! D14   D(22,4,5,6)          -130.4768         estimate D2E/DX2                !
 ! D15   D(22,4,5,14)           -7.4535         estimate D2E/DX2                !
 ! D16   D(22,4,5,15)          108.4031         estimate D2E/DX2                !
 ! D17   D(2,4,22,23)            3.0022         estimate D2E/DX2                !
 ! D18   D(2,4,22,24)          120.0429         estimate D2E/DX2                !
 ! D19   D(2,4,22,25)         -118.6932         estimate D2E/DX2                !
 ! D20   D(5,4,22,23)         -156.1142         estimate D2E/DX2                !
 ! D21   D(5,4,22,24)          -39.0735         estimate D2E/DX2                !
 ! D22   D(5,4,22,25)           82.1904         estimate D2E/DX2                !
 ! D23   D(4,5,6,7)           -166.447          estimate D2E/DX2                !
 ! D24   D(4,5,6,8)             17.8568         Scan                            !
 ! D25   D(14,5,6,7)            69.3857         estimate D2E/DX2                !
 ! D26   D(14,5,6,8)          -106.3105         estimate D2E/DX2                !
 ! D27   D(15,5,6,7)           -42.213          estimate D2E/DX2                !
 ! D28   D(15,5,6,8)           142.0908         estimate D2E/DX2                !
 ! D29   D(5,6,8,9)            -10.1129         estimate D2E/DX2                !
 ! D30   D(5,6,8,10)          -177.1146         estimate D2E/DX2                !
 ! D31   D(7,6,8,9)            174.537          estimate D2E/DX2                !
 ! D32   D(7,6,8,10)             7.5352         estimate D2E/DX2                !
 ! D33   D(6,8,9,16)            27.0691         estimate D2E/DX2                !
 ! D34   D(6,8,9,17)           146.2023         estimate D2E/DX2                !
 ! D35   D(6,8,9,18)           -94.4039         estimate D2E/DX2                !
 ! D36   D(10,8,9,16)         -165.5821         estimate D2E/DX2                !
 ! D37   D(10,8,9,17)          -46.449          estimate D2E/DX2                !
 ! D38   D(10,8,9,18)           72.9448         estimate D2E/DX2                !
 ! D39   D(6,8,10,19)         -131.4121         estimate D2E/DX2                !
 ! D40   D(6,8,10,20)          -11.1071         estimate D2E/DX2                !
 ! D41   D(6,8,10,21)          108.956          estimate D2E/DX2                !
 ! D42   D(9,8,10,19)           59.8994         estimate D2E/DX2                !
 ! D43   D(9,8,10,20)         -179.7956         estimate D2E/DX2                !
 ! D44   D(9,8,10,21)          -59.7325         estimate D2E/DX2                !
 ! D45   D(4,22,25,26)          63.3333         estimate D2E/DX2                !
 ! D46   D(4,22,25,27)         -54.8529         estimate D2E/DX2                !
 ! D47   D(4,22,25,28)        -175.8936         estimate D2E/DX2                !
 ! D48   D(23,22,25,26)        -59.1746         estimate D2E/DX2                !
 ! D49   D(23,22,25,27)       -177.3608         estimate D2E/DX2                !
 ! D50   D(23,22,25,28)         61.5985         estimate D2E/DX2                !
 ! D51   D(24,22,25,26)       -174.6603         estimate D2E/DX2                !
 ! D52   D(24,22,25,27)         67.1535         estimate D2E/DX2                !
 ! D53   D(24,22,25,28)        -53.8873         estimate D2E/DX2                !
 ! D54   D(22,25,28,29)        179.6833         estimate D2E/DX2                !
 ! D55   D(26,25,28,29)        -60.0904         estimate D2E/DX2                !
 ! D56   D(27,25,28,29)         58.9676         estimate D2E/DX2                !
 ! D57   D(25,28,29,30)       -179.738          estimate D2E/DX2                !
 ! D58   D(25,28,29,31)        -60.4982         estimate D2E/DX2                !
 ! D59   D(25,28,29,32)         61.0213         estimate D2E/DX2                !
 --------------------------------------------------------------------------------
 Trust Radius=3.00D-01 FncErr=1.00D-07 GrdErr=1.00D-06
 Number of optimizations in scan=  37
 Number of steps in this run=    155 maximum allowed number of steps=    192.
 GradGradGradGradGradGradGradGradGradGradGradGradGradGradGradGradGradGrad

                          Input orientation:                          
 ---------------------------------------------------------------------
 Center     Atomic      Atomic             Coordinates (Angstroms)
 Number     Number       Type             X           Y           Z
 ---------------------------------------------------------------------
      1          6           0        0.716577    2.978612   -0.786852
      2          6           0       -0.237322    2.025413   -0.082314
      3          8           0       -1.442494    2.247121   -0.039463
      4          7           0        0.276670    0.876019    0.485186
      5          6           0       -0.654630    0.099998    1.312372
      6          6           0       -1.879748   -0.677500    0.775167
      7          8           0       -2.656646   -1.028469    1.660646
      8          7           0       -2.069251   -1.037679   -0.532596
      9          6           0       -1.297324   -0.605108   -1.686621
     10          6           0       -3.319333   -1.713773   -0.867947
     11          1           0        0.107451    3.711380   -1.315103
     12          1           0        1.369881    2.468147   -1.501044
     13          1           0        1.353179    3.508046   -0.069706
     14          1           0       -0.067008   -0.645714    1.854862
     15          1           0       -1.107839    0.757455    2.059031
     16          1           0       -0.283418   -0.343760   -1.402634
     17          1           0       -1.251386   -1.427904   -2.408441
     18          1           0       -1.760620    0.260241   -2.177926
     19          1           0       -3.110344   -2.608703   -1.465343
     20          1           0       -3.822763   -1.993583    0.054459
     21          1           0       -3.971733   -1.051633   -1.452124
     22          6           0        1.704993    0.626735    0.681961
     23          1           0        2.282993    1.494875    0.366671
     24          1           0        1.912903    0.482547    1.749328
     25          6           0        2.210779   -0.599651   -0.079811
     26          1           0        2.102445   -0.443144   -1.167074
     27          1           0        1.614334   -1.490459    0.181303
     28          8           0        3.565362   -0.775727    0.273230
     29          6           0        4.163009   -1.889962   -0.359624
     30          1           0        5.199057   -1.938305   -0.017687
     31          1           0        3.655439   -2.829945   -0.093980
     32          1           0        4.153705   -1.789904   -1.456012
 ---------------------------------------------------------------------
                    Distance matrix (angstroms):
                    1          2          3          4          5
     1  C    0.000000
     2  C    1.521475   0.000000
     3  O    2.399012   1.226144   0.000000
     4  N    2.496497   1.381069   2.260686   0.000000
     5  C    3.817508   2.413818   2.656751   1.467571   0.000000
     6  C    4.748469   3.276977   3.067282   2.673509   1.547258
     7  O    5.781486   4.268165   3.885103   3.689597   2.324393
     8  N    4.894495   3.597395   3.380224   3.193973   2.588314
     9  C    4.208139   3.258381   3.296879   3.063975   3.147092
    10  C    6.189800   4.908923   4.460672   4.633490   3.891555
    11  H    1.089510   2.116866   2.484681   3.362878   4.530615
    12  H    1.094281   2.189043   3.177188   2.770396   4.197867
    13  H    1.095382   2.174409   3.067024   2.897299   4.190015
    14  H    4.552845   3.304024   3.721414   2.076005   1.093472
    15  H    4.044883   2.636451   2.595145   2.099502   1.093228
    16  H    3.523824   2.712628   3.148707   2.316338   2.775964
    17  H    5.091150   4.285393   4.376573   4.002011   4.066331
    18  H    3.932065   3.134942   2.936311   3.409091   3.664843
    19  H    6.806156   5.625127   5.328591   5.236384   4.591655
    20  H    6.784993   5.387618   4.863956   5.022499   4.000312
    21  H    6.218176   5.028958   4.390266   5.051529   4.468989
    22  C    2.943757   2.512569   3.612863   1.463205   2.498538
    23  H    2.446579   2.614392   3.822312   2.102941   3.386689
    24  H    3.754164   3.218511   4.191919   2.104788   2.632394
    25  C    3.941638   3.589452   4.631646   2.497519   3.261633
    26  H    3.711282   3.570012   4.590820   2.793494   3.747548
    27  H    4.660031   3.982396   4.833471   2.735308   2.992836
    28  O    4.830570   4.736370   5.857816   3.686283   4.433401
    29  C    5.980253   5.896607   6.974211   4.844377   5.474044
    30  H    6.697784   6.728258   7.850380   5.692380   6.339510
    31  H    6.546474   6.223201   7.195032   5.048335   5.398063
    32  H    5.916111   5.977023   7.044262   5.089872   5.861379
                    6          7          8          9         10
     6  C    0.000000
     7  O    1.229155   0.000000
     8  N    1.369629   2.270557   0.000000
     9  C    2.530782   3.637470   1.454222   0.000000
    10  C    2.417869   2.702328   1.460229   2.447016   0.000000
    11  H    5.251710   6.241913   5.282415   4.554502   6.432347
    12  H    5.063232   6.199639   5.005630   4.073490   6.314903
    13  H    5.355784   6.297046   5.708845   5.153408   7.052443
    14  H    2.110161   2.624966   3.140473   3.749324   4.374021
    15  H    2.074427   2.397298   3.295960   3.990287   4.423220
    16  H    2.720748   3.935063   2.104208   1.084876   3.373367
    17  H    3.330661   4.323398   2.083260   1.095503   2.594465
    18  H    3.100695   4.147080   2.118245   1.097658   2.835906
    19  H    3.203716   3.531967   2.102857   2.711162   1.096110
    20  H    2.454955   2.207059   2.081632   3.367056   1.087460
    21  H    3.078506   3.379250   2.113094   2.721550   1.097870
    22  C    3.815768   4.766699   4.300040   4.017652   5.755349
    23  H    4.713226   5.695759   5.115128   4.630832   6.573109
    24  H    4.083981   4.813711   4.834854   4.826417   6.249019
    25  C    4.179648   5.186994   4.326146   3.858582   5.696013
    26  H    4.436788   5.566646   4.261347   3.443050   5.576706
    27  H    3.636232   4.543475   3.779346   3.570818   5.048947
    28  O    5.469078   6.379826   5.697968   5.245554   7.041395
    29  C    6.266796   7.164590   6.292644   5.764287   7.501658
    30  H    7.233791   8.084347   7.341972   6.838547   8.563663
    31  H    6.002227   6.794589   6.014705   5.658292   7.105794
    32  H    6.528258   7.528228   6.335907   5.583067   7.496527
                   11         12         13         14         15
    11  H    0.000000
    12  H    1.781553   0.000000
    13  H    1.773188   1.769293   0.000000
    14  H    5.391046   4.798217   4.793184   0.000000
    15  H    4.646222   4.662585   4.260737   1.758948   0.000000
    16  H    4.074874   3.263419   4.392215   3.278611   3.724979
    17  H    5.427160   4.782638   6.051202   4.493365   4.975410
    18  H    4.018024   3.890123   4.968760   4.466817   4.315686
    19  H    7.093675   6.771122   7.699705   4.913144   5.268990
    20  H    7.061790   7.020696   7.554715   4.377659   4.354002
    21  H    6.272544   6.397193   7.145379   5.133011   4.878821
    22  C    4.006924   2.875519   2.998455   2.476855   3.134555
    23  H    3.531889   2.295515   2.260052   3.509892   3.860779
    24  H    4.803723   3.847389   3.574328   2.281262   3.048995
    25  C    4.953274   3.484020   4.196279   2.988879   4.174878
    26  H    4.611072   3.020563   4.168635   3.725541   4.706922
    27  H    5.618635   4.308203   5.011612   2.518195   3.998650
    28  O    5.883373   4.300105   4.833433   3.963909   5.232451
    29  C    6.981083   5.300709   6.092429   4.934080   6.374994
    30  H    7.715354   6.023268   6.667550   5.736608   7.166367
    31  H    7.541107   5.939140   6.743228   4.735553   6.339851
    32  H    6.830531   5.087505   6.150859   5.485023   6.821174
                   16         17         18         19         20
    16  H    0.000000
    17  H    1.767478   0.000000
    18  H    1.774266   1.778283   0.000000
    19  H    3.622901   2.395714   3.249672   0.000000
    20  H    4.167973   3.605253   3.783609   1.787655   0.000000
    21  H    3.755955   2.907991   2.671483   1.779504   1.783046
    22  C    3.039930   4.744713   4.508186   6.185988   6.149464
    23  H    3.619045   5.360571   4.934582   7.020236   7.038968
    24  H    3.929564   5.563236   5.382148   6.717362   6.473150
    25  C    2.834847   4.253834   4.573129   5.854087   6.193925
    26  H    2.399522   3.709303   4.054608   5.652590   6.245326
    27  H    2.724929   3.863035   4.474509   5.126841   5.461799
    28  O    4.219979   5.551374   5.953779   7.137751   7.491023
    29  C    4.821755   5.807480   6.558885   7.391946   7.997172
    30  H    5.875218   6.898147   7.611658   8.461163   9.022278
    31  H    4.838211   5.603515   6.574631   6.906910   7.526290
    32  H    4.667145   5.500289   6.301071   7.310057   8.120779
                   21         22         23         24         25
    21  H    0.000000
    22  C    6.292571   0.000000
    23  H    6.993877   1.089568   0.000000
    24  H    6.872550   1.096945   1.753144   0.000000
    25  C    6.349093   1.529751   2.142802   2.146074   0.000000
    26  H    6.111232   2.172910   2.478082   3.065653   1.103799
    27  H    5.836506   2.177473   3.064912   2.537833   1.103388
    28  O    7.736974   2.365361   2.609374   2.548085   1.410863
    29  C    8.250478   3.668856   3.939427   3.890945   2.356777
    30  H    9.324547   4.390606   4.520828   4.447659   3.275005
    31  H    7.948629   4.044127   4.560688   4.172148   2.657340
    32  H    8.158909   4.050588   4.196607   4.523210   2.661878
                   26         27         28         29         30
    26  H    0.000000
    27  H    1.775737   0.000000
    28  O    2.079715   2.079856   0.000000
    29  C    2.644084   2.635896   1.413933   0.000000
    30  H    3.625687   3.618066   2.026124   1.092087   0.000000
    31  H    3.043048   2.456850   2.088724   1.100801   1.784264
    32  H    2.470813   3.036260   2.089254   1.100984   1.784254
                   31         32
    31  H    0.000000
    32  H    1.784681   0.000000
 Stoichiometry    C9H18N2O3
 Framework group  C1[X(C9H18N2O3)]
 Deg. of freedom    90
 Full point group                 C1      NOp   1
 Largest Abelian subgroup         C1      NOp   1
 Largest concise Abelian subgroup C1      NOp   1
                         Standard orientation:                         
 ---------------------------------------------------------------------
 Center     Atomic      Atomic             Coordinates (Angstroms)
 Number     Number       Type             X           Y           Z
 ---------------------------------------------------------------------
      1          6           0       -0.716577    2.978612    0.786852
      2          6           0        0.237322    2.025413    0.082314
      3          8           0        1.442494    2.247121    0.039463
      4          7           0       -0.276670    0.876019   -0.485186
      5          6           0        0.654630    0.099998   -1.312372
      6          6           0        1.879748   -0.677500   -0.775167
      7          8           0        2.656646   -1.028469   -1.660646
      8          7           0        2.069251   -1.037679    0.532596
      9          6           0        1.297324   -0.605108    1.686621
     10          6           0        3.319333   -1.713773    0.867947
     11          1           0       -0.107451    3.711380    1.315103
     12          1           0       -1.369881    2.468147    1.501044
     13          1           0       -1.353179    3.508046    0.069706
     14          1           0        0.067008   -0.645714   -1.854862
     15          1           0        1.107839    0.757455   -2.059031
     16          1           0        0.283418   -0.343760    1.402634
     17          1           0        1.251386   -1.427904    2.408441
     18          1           0        1.760620    0.260241    2.177926
     19          1           0        3.110344   -2.608703    1.465343
     20          1           0        3.822763   -1.993583   -0.054459
     21          1           0        3.971733   -1.051633    1.452124
     22          6           0       -1.704993    0.626735   -0.681961
     23          1           0       -2.282993    1.494875   -0.366671
     24          1           0       -1.912903    0.482547   -1.749328
     25          6           0       -2.210779   -0.599651    0.079811
     26          1           0       -2.102445   -0.443144    1.167074
     27          1           0       -1.614334   -1.490459   -0.181303
     28          8           0       -3.565362   -0.775727   -0.273230
     29          6           0       -4.163009   -1.889962    0.359624
     30          1           0       -5.199057   -1.938305    0.017687
     31          1           0       -3.655439   -2.829945    0.093980
     32          1           0       -4.153705   -1.789904    1.456012
 ---------------------------------------------------------------------
 Rotational constants (GHZ):      0.8060751      0.4155587      0.3377152
 Standard basis: 6-31G(d,p) (6D, 7F)
 There are   300 symmetry adapted basis functions of A   symmetry.
 Integral buffers will be    131072 words long.
 Raffenetti 2 integral format.
 Two-electron integral symmetry is turned on.
   300 basis functions,   518 primitive gaussians,   300 cartesian basis functions
    55 alpha electrons       55 beta electrons
       nuclear repulsion energy       976.5349253846 Hartrees.
 NAtoms=   32 NActive=   32 NUniq=   32 SFac= 1.00D+00 NAtFMM=   60 NAOKFM=F Big=F
 One-electron integrals computed using PRISM.
 NBasis=   300 RedAO= T  NBF=   300
 NBsUse=   300 1.00D-06 NBFU=   300
 Harris functional with IExCor=  402 diagonalized for initial guess.
 ExpMin= 1.61D-01 ExpMax= 5.48D+03 ExpMxC= 8.25D+02 IAcc=1 IRadAn=         1 AccDes= 0.00D+00
 HarFok:  IExCor=  402 AccDes= 0.00D+00 IRadAn=         1 IDoV= 1
 ScaDFX=  1.000000  1.000000  1.000000  1.000000
 FoFCou: FMM=F IPFlag=           0 FMFlag=      100000 FMFlg1=           0
         NFxFlg=           0 DoJE=T BraDBF=F KetDBF=T FulRan=T
         Omega=  0.000000  0.000000  1.000000  0.000000  0.000000 ICntrl=     500 IOpCl=  0
         NMat0=    1 NMatS0=    1 NMatT0=    0 NMatD0=    1 NMtDS0=    0 NMtDT0=    0
         I1Cent=           4 NGrid=           0.
 Petite list used in FoFCou.
 Initial guess orbital symmetries:
       Occupied  (A) (A) (A) (A) (A) (A) (A) (A) (A) (A) (A) (A)
                 (A) (A) (A) (A) (A) (A) (A) (A) (A) (A) (A) (A)
                 (A) (A) (A) (A) (A) (A) (A) (A) (A) (A) (A) (A)
                 (A) (A) (A) (A) (A) (A) (A) (A) (A) (A) (A) (A)
                 (A) (A) (A) (A) (A) (A) (A)
       Virtual   (A) (A) (A) (A) (A) (A) (A) (A) (A) (A) (A) (A)
                 (A) (A) (A) (A) (A) (A) (A) (A) (A) (A) (A) (A)
                 (A) (A) (A) (A) (A) (A) (A) (A) (A) (A) (A) (A)
                 (A) (A) (A) (A) (A) (A) (A) (A) (A) (A) (A) (A)
                 (A) (A) (A) (A) (A) (A) (A) (A) (A) (A) (A) (A)
                 (A) (A) (A) (A) (A) (A) (A) (A) (A) (A) (A) (A)
                 (A) (A) (A) (A) (A) (A) (A) (A) (A) (A) (A) (A)
                 (A) (A) (A) (A) (A) (A) (A) (A) (A) (A) (A) (A)
                 (A) (A) (A) (A) (A) (A) (A) (A) (A) (A) (A) (A)
                 (A) (A) (A) (A) (A) (A) (A) (A) (A) (A) (A) (A)
                 (A) (A) (A) (A) (A) (A) (A) (A) (A) (A) (A) (A)
                 (A) (A) (A) (A) (A) (A) (A) (A) (A) (A) (A) (A)
                 (A) (A) (A) (A) (A) (A) (A) (A) (A) (A) (A) (A)
                 (A) (A) (A) (A) (A) (A) (A) (A) (A) (A) (A) (A)
                 (A) (A) (A) (A) (A) (A) (A) (A) (A) (A) (A) (A)
                 (A) (A) (A) (A) (A) (A) (A) (A) (A) (A) (A) (A)
                 (A) (A) (A) (A) (A) (A) (A) (A) (A) (A) (A) (A)
                 (A) (A) (A) (A) (A) (A) (A) (A) (A) (A) (A) (A)
                 (A) (A) (A) (A) (A) (A) (A) (A) (A) (A) (A) (A)
                 (A) (A) (A) (A) (A) (A) (A) (A) (A) (A) (A) (A)
                 (A) (A) (A) (A) (A)
 The electronic state of the initial guess is 1-A.
 Requested convergence on RMS density matrix=1.00D-08 within 128 cycles.
 Requested convergence on MAX density matrix=1.00D-06.
 Requested convergence on             energy=1.00D-06.
 No special actions if energy rises.
 Keep R1 ints in memory in canonical form, NReq=1033483858.
 Integral accuracy reduced to 1.0D-05 until final iterations.
 Initial convergence to 1.0D-05 achieved.  Increase integral accuracy.
 SCF Done:  E(RB3LYP) =  -688.985637472     A.U. after   14 cycles
             Convg  =    0.6653D-08             -V/T =  2.0093

 **********************************************************************

            Population analysis using the SCF density.

 **********************************************************************

 Orbital symmetries:
       Occupied  (A) (A) (A) (A) (A) (A) (A) (A) (A) (A) (A) (A)
                 (A) (A) (A) (A) (A) (A) (A) (A) (A) (A) (A) (A)
                 (A) (A) (A) (A) (A) (A) (A) (A) (A) (A) (A) (A)
                 (A) (A) (A) (A) (A) (A) (A) (A) (A) (A) (A) (A)
                 (A) (A) (A) (A) (A) (A) (A)
       Virtual   (A) (A) (A) (A) (A) (A) (A) (A) (A) (A) (A) (A)
                 (A) (A) (A) (A) (A) (A) (A) (A) (A) (A) (A) (A)
                 (A) (A) (A) (A) (A) (A) (A) (A) (A) (A) (A) (A)
                 (A) (A) (A) (A) (A) (A) (A) (A) (A) (A) (A) (A)
                 (A) (A) (A) (A) (A) (A) (A) (A) (A) (A) (A) (A)
                 (A) (A) (A) (A) (A) (A) (A) (A) (A) (A) (A) (A)
                 (A) (A) (A) (A) (A) (A) (A) (A) (A) (A) (A) (A)
                 (A) (A) (A) (A) (A) (A) (A) (A) (A) (A) (A) (A)
                 (A) (A) (A) (A) (A) (A) (A) (A) (A) (A) (A) (A)
                 (A) (A) (A) (A) (A) (A) (A) (A) (A) (A) (A) (A)
                 (A) (A) (A) (A) (A) (A) (A) (A) (A) (A) (A) (A)
                 (A) (A) (A) (A) (A) (A) (A) (A) (A) (A) (A) (A)
                 (A) (A) (A) (A) (A) (A) (A) (A) (A) (A) (A) (A)
                 (A) (A) (A) (A) (A) (A) (A) (A) (A) (A) (A) (A)
                 (A) (A) (A) (A) (A) (A) (A) (A) (A) (A) (A) (A)
                 (A) (A) (A) (A) (A) (A) (A) (A) (A) (A) (A) (A)
                 (A) (A) (A) (A) (A) (A) (A) (A) (A) (A) (A) (A)
                 (A) (A) (A) (A) (A) (A) (A) (A) (A) (A) (A) (A)
                 (A) (A) (A) (A) (A) (A) (A) (A) (A) (A) (A) (A)
                 (A) (A) (A) (A) (A) (A) (A) (A) (A) (A) (A) (A)
                 (A) (A) (A) (A) (A)
 The electronic state is 1-A.
 Alpha  occ. eigenvalues --  -19.16506 -19.11632 -19.09673 -14.37229 -14.36071
 Alpha  occ. eigenvalues --  -10.29111 -10.28027 -10.24988 -10.24068 -10.23737
 Alpha  occ. eigenvalues --  -10.22822 -10.21694 -10.20463 -10.19854  -1.04914
 Alpha  occ. eigenvalues --   -1.03825  -1.02091  -0.93876  -0.92296  -0.77795
 Alpha  occ. eigenvalues --   -0.76058  -0.72124  -0.71252  -0.68882  -0.67554
 Alpha  occ. eigenvalues --   -0.63282  -0.56989  -0.54118  -0.51725  -0.50615
 Alpha  occ. eigenvalues --   -0.48855  -0.48291  -0.47983  -0.46809  -0.46156
 Alpha  occ. eigenvalues --   -0.44774  -0.44333  -0.43304  -0.42526  -0.40749
 Alpha  occ. eigenvalues --   -0.40150  -0.39947  -0.39493  -0.39353  -0.38283
 Alpha  occ. eigenvalues --   -0.37511  -0.37095  -0.35620  -0.33952  -0.33478
 Alpha  occ. eigenvalues --   -0.27194  -0.25768  -0.25446  -0.23299  -0.23073
 Alpha virt. eigenvalues --    0.01585   0.03424   0.06722   0.07645   0.09924
 Alpha virt. eigenvalues --    0.10059   0.11810   0.12083   0.13467   0.14292
 Alpha virt. eigenvalues --    0.14540   0.14717   0.15122   0.15833   0.16229
 Alpha virt. eigenvalues --    0.16706   0.17257   0.17849   0.18027   0.18380
 Alpha virt. eigenvalues --    0.18918   0.20356   0.20637   0.22346   0.22936
 Alpha virt. eigenvalues --    0.24482   0.25815   0.26474   0.28888   0.33275
 Alpha virt. eigenvalues --    0.34350   0.37379   0.42856   0.46700   0.47159
 Alpha virt. eigenvalues --    0.48485   0.50360   0.50928   0.52823   0.53714
 Alpha virt. eigenvalues --    0.54456   0.55202   0.55780   0.56439   0.57299
 Alpha virt. eigenvalues --    0.59762   0.60175   0.62396   0.62471   0.63774
 Alpha virt. eigenvalues --    0.66814   0.67198   0.68843   0.70350   0.71657
 Alpha virt. eigenvalues --    0.72207   0.74371   0.76175   0.76945   0.77977
 Alpha virt. eigenvalues --    0.78683   0.79315   0.79920   0.81632   0.82673
 Alpha virt. eigenvalues --    0.82964   0.84303   0.84485   0.85550   0.86076
 Alpha virt. eigenvalues --    0.86951   0.87442   0.88557   0.89349   0.90060
 Alpha virt. eigenvalues --    0.90706   0.91897   0.92499   0.93028   0.94299
 Alpha virt. eigenvalues --    0.95216   0.96509   0.98637   0.99440   1.00086
 Alpha virt. eigenvalues --    1.02558   1.04502   1.06120   1.08035   1.09984
 Alpha virt. eigenvalues --    1.11417   1.14164   1.17313   1.19415   1.21400
 Alpha virt. eigenvalues --    1.23669   1.27087   1.28949   1.30702   1.31982
 Alpha virt. eigenvalues --    1.34809   1.36163   1.37002   1.38808   1.40040
 Alpha virt. eigenvalues --    1.41583   1.43946   1.45057   1.49183   1.52794
 Alpha virt. eigenvalues --    1.54722   1.57997   1.61862   1.62997   1.67994
 Alpha virt. eigenvalues --    1.68669   1.69566   1.70022   1.72368   1.73412
 Alpha virt. eigenvalues --    1.74889   1.77747   1.78915   1.81530   1.81952
 Alpha virt. eigenvalues --    1.84198   1.84724   1.85565   1.86399   1.86981
 Alpha virt. eigenvalues --    1.89398   1.89938   1.91498   1.92202   1.93706
 Alpha virt. eigenvalues --    1.94942   1.96189   1.96822   1.98650   1.99529
 Alpha virt. eigenvalues --    2.00821   2.01700   2.02089   2.02330   2.03551
 Alpha virt. eigenvalues --    2.03880   2.04500   2.05126   2.06353   2.06776
 Alpha virt. eigenvalues --    2.08069   2.08584   2.09438   2.10613   2.12148
 Alpha virt. eigenvalues --    2.13562   2.13908   2.16418   2.17980   2.20438
 Alpha virt. eigenvalues --    2.22518   2.23736   2.25519   2.26535   2.28406
 Alpha virt. eigenvalues --    2.29474   2.32148   2.33512   2.36900   2.38913
 Alpha virt. eigenvalues --    2.40036   2.43137   2.46299   2.47717   2.50896
 Alpha virt. eigenvalues --    2.52228   2.54922   2.55223   2.56217   2.57539
 Alpha virt. eigenvalues --    2.58434   2.60245   2.61168   2.62801   2.65480
 Alpha virt. eigenvalues --    2.66546   2.67893   2.68687   2.69413   2.70176
 Alpha virt. eigenvalues --    2.71135   2.72272   2.73816   2.74746   2.78527
 Alpha virt. eigenvalues --    2.80293   2.80882   2.83190   2.84347   2.84636
 Alpha virt. eigenvalues --    2.86373   2.88675   2.89648   2.91126   2.92016
 Alpha virt. eigenvalues --    2.96843   2.98374   3.00595   3.04743   3.09048
 Alpha virt. eigenvalues --    3.10381   3.14042   3.16492   3.16817   3.19401
 Alpha virt. eigenvalues --    3.21896   3.25584   3.26928   3.33615   3.35037
 Alpha virt. eigenvalues --    3.37373   3.39966   3.41196   3.41868   3.42887
 Alpha virt. eigenvalues --    3.44731   3.45093   3.45670   3.47828   3.51601
 Alpha virt. eigenvalues --    3.53759   3.97513   4.02108   4.04207   4.13689
 Alpha virt. eigenvalues --    4.14444   4.29066   4.33879   4.41398   4.44749
 Alpha virt. eigenvalues --    4.49812   4.55283   4.61344   4.68419   4.72499
          Condensed to atoms (all electrons):
              1          2          3          4          5          6
     1  C    5.158374   0.348441  -0.079474  -0.124173   0.005842   0.000007
     2  C    0.348441   4.375877   0.576457   0.255793  -0.027021  -0.002403
     3  O   -0.079474   0.576457   8.083104  -0.102070   0.002823   0.007357
     4  N   -0.124173   0.255793  -0.102070   7.230851   0.162843  -0.023413
     5  C    0.005842  -0.027021   0.002823   0.162843   5.084564   0.328035
     6  C    0.000007  -0.002403   0.007357  -0.023413   0.328035   4.380614
     7  O   -0.000001  -0.000055  -0.000231   0.003080  -0.072207   0.529349
     8  N   -0.000014  -0.000655  -0.002366   0.008006  -0.091716   0.294930
     9  C    0.000013   0.001701   0.003011  -0.019490   0.000081  -0.018207
    10  C    0.000000  -0.000046  -0.000055  -0.000205   0.005177  -0.029911
    11  H    0.368722  -0.023184   0.004805   0.004557  -0.000120   0.000000
    12  H    0.359468  -0.022567   0.001737   0.003203   0.000019  -0.000010
    13  H    0.362657  -0.019239   0.001102   0.001697  -0.000274  -0.000001
    14  H   -0.000122   0.005573   0.000932  -0.040221   0.367900  -0.030606
    15  H    0.000292  -0.004604   0.007001  -0.043568   0.376148  -0.037243
    16  H   -0.000295  -0.002610  -0.002490   0.011066   0.000125  -0.005230
    17  H    0.000004   0.000158   0.000084   0.000324  -0.000377   0.002622
    18  H    0.000081   0.001511   0.002385  -0.000944   0.000548  -0.001499
    19  H    0.000000   0.000000  -0.000001   0.000000  -0.000152   0.002398
    20  H    0.000000  -0.000003  -0.000002  -0.000017   0.000955  -0.004402
    21  H    0.000000  -0.000001   0.000019  -0.000003  -0.000104  -0.000507
    22  C   -0.000415  -0.021648   0.002392   0.247223  -0.030914   0.001836
    23  H    0.008228  -0.008310   0.000152  -0.030613   0.002917  -0.000109
    24  H   -0.000295   0.000945  -0.000037  -0.038373  -0.004749  -0.000130
    25  C   -0.000583   0.000265  -0.000038  -0.053876  -0.001858   0.000299
    26  H   -0.000086   0.000488  -0.000011   0.002585  -0.000353   0.000074
    27  H    0.000025  -0.000036   0.000002   0.000763   0.003037  -0.000602
    28  O   -0.000005   0.000009   0.000000   0.001909  -0.000037   0.000000
    29  C    0.000000  -0.000001   0.000000  -0.000128   0.000001   0.000000
    30  H    0.000000   0.000000   0.000000   0.000001   0.000000   0.000000
    31  H    0.000000   0.000000   0.000000   0.000013  -0.000002   0.000000
    32  H    0.000000   0.000000   0.000000   0.000007   0.000000   0.000000
              7          8          9         10         11         12
     1  C   -0.000001  -0.000014   0.000013   0.000000   0.368722   0.359468
     2  C   -0.000055  -0.000655   0.001701  -0.000046  -0.023184  -0.022567
     3  O   -0.000231  -0.002366   0.003011  -0.000055   0.004805   0.001737
     4  N    0.003080   0.008006  -0.019490  -0.000205   0.004557   0.003203
     5  C   -0.072207  -0.091716   0.000081   0.005177  -0.000120   0.000019
     6  C    0.529349   0.294930  -0.018207  -0.029911   0.000000  -0.000010
     7  O    8.132665  -0.084788   0.002691  -0.014916   0.000000   0.000000
     8  N   -0.084788   6.971436   0.293243   0.296268   0.000000   0.000007
     9  C    0.002691   0.293243   4.819997  -0.053160  -0.000001  -0.000046
    10  C   -0.014916   0.296268  -0.053160   4.828034   0.000000   0.000000
    11  H    0.000000   0.000000  -0.000001   0.000000   0.542250  -0.023210
    12  H    0.000000   0.000007  -0.000046   0.000000  -0.023210   0.588889
    13  H    0.000000  -0.000001   0.000007   0.000000  -0.021485  -0.030238
    14  H    0.000820   0.000790   0.000092  -0.000125   0.000002  -0.000009
    15  H    0.005487   0.003486  -0.000341  -0.000156  -0.000011  -0.000004
    16  H    0.000034  -0.029368   0.380183   0.004461   0.000000   0.000604
    17  H   -0.000070  -0.041523   0.380079  -0.005298   0.000000  -0.000013
    18  H    0.000003  -0.045091   0.383842  -0.000163   0.000022  -0.000049
    19  H    0.000750  -0.043240  -0.003729   0.382766   0.000000   0.000000
    20  H    0.025799  -0.034386   0.004568   0.382309   0.000000   0.000000
    21  H    0.000858  -0.047346  -0.000130   0.388498   0.000000   0.000000
    22  C   -0.000047  -0.000072   0.000391   0.000001   0.000386  -0.002114
    23  H    0.000001   0.000003  -0.000025   0.000000  -0.000012  -0.001263
    24  H    0.000005   0.000017  -0.000086   0.000000  -0.000013   0.000183
    25  C    0.000000  -0.000062  -0.000106   0.000001   0.000001  -0.000033
    26  H    0.000000  -0.000032  -0.001518   0.000000  -0.000012   0.001252
    27  H   -0.000011   0.000398   0.000301  -0.000004   0.000001  -0.000044
    28  O    0.000000   0.000000   0.000006   0.000000   0.000000  -0.000024
    29  C    0.000000   0.000000   0.000001   0.000000   0.000000  -0.000001
    30  H    0.000000   0.000000   0.000000   0.000000   0.000000   0.000000
    31  H    0.000000   0.000000   0.000000   0.000000   0.000000   0.000000
    32  H    0.000000   0.000000  -0.000002   0.000000   0.000000   0.000001
             13         14         15         16         17         18
     1  C    0.362657  -0.000122   0.000292  -0.000295   0.000004   0.000081
     2  C   -0.019239   0.005573  -0.004604  -0.002610   0.000158   0.001511
     3  O    0.001102   0.000932   0.007001  -0.002490   0.000084   0.002385
     4  N    0.001697  -0.040221  -0.043568   0.011066   0.000324  -0.000944
     5  C   -0.000274   0.367900   0.376148   0.000125  -0.000377   0.000548
     6  C   -0.000001  -0.030606  -0.037243  -0.005230   0.002622  -0.001499
     7  O    0.000000   0.000820   0.005487   0.000034  -0.000070   0.000003
     8  N   -0.000001   0.000790   0.003486  -0.029368  -0.041523  -0.045091
     9  C    0.000007   0.000092  -0.000341   0.380183   0.380079   0.383842
    10  C    0.000000  -0.000125  -0.000156   0.004461  -0.005298  -0.000163
    11  H   -0.021485   0.000002  -0.000011   0.000000   0.000000   0.000022
    12  H   -0.030238  -0.000009  -0.000004   0.000604  -0.000013  -0.000049
    13  H    0.569146  -0.000007   0.000014  -0.000003   0.000000   0.000003
    14  H   -0.000007   0.586284  -0.023048  -0.000076   0.000038  -0.000040
    15  H    0.000014  -0.023048   0.552485   0.000199  -0.000005   0.000058
    16  H   -0.000003  -0.000076   0.000199   0.580258  -0.027934  -0.032014
    17  H    0.000000   0.000038  -0.000005  -0.027934   0.627178  -0.045184
    18  H    0.000003  -0.000040   0.000058  -0.032014  -0.045184   0.601655
    19  H    0.000000   0.000018  -0.000003   0.000115   0.007093  -0.001406
    20  H    0.000000  -0.000026  -0.000029  -0.000246   0.000103  -0.000135
    21  H    0.000000  -0.000006   0.000026  -0.000042  -0.002405   0.006013
    22  C   -0.002175  -0.000091  -0.000370  -0.002639   0.000018  -0.000014
    23  H    0.001217   0.000393  -0.000098  -0.000052   0.000001   0.000001
    24  H    0.000286   0.001564   0.002204   0.000218   0.000001  -0.000001
    25  C    0.000049  -0.001998  -0.000241   0.000244  -0.000009   0.000022
    26  H    0.000028  -0.000037  -0.000008   0.004935   0.000141  -0.000040
    27  H   -0.000004   0.002358   0.000065  -0.000449  -0.000044   0.000025
    28  O    0.000000  -0.000070   0.000001  -0.000018   0.000000   0.000000
    29  C    0.000000  -0.000002   0.000000  -0.000005   0.000000   0.000000
    30  H    0.000000   0.000000   0.000000   0.000000   0.000000   0.000000
    31  H    0.000000   0.000003   0.000000  -0.000001   0.000000   0.000000
    32  H    0.000000   0.000000   0.000000   0.000009   0.000000   0.000000
             19         20         21         22         23         24
     1  C    0.000000   0.000000   0.000000  -0.000415   0.008228  -0.000295
     2  C    0.000000  -0.000003  -0.000001  -0.021648  -0.008310   0.000945
     3  O   -0.000001  -0.000002   0.000019   0.002392   0.000152  -0.000037
     4  N    0.000000  -0.000017  -0.000003   0.247223  -0.030613  -0.038373
     5  C   -0.000152   0.000955  -0.000104  -0.030914   0.002917  -0.004749
     6  C    0.002398  -0.004402  -0.000507   0.001836  -0.000109  -0.000130
     7  O    0.000750   0.025799   0.000858  -0.000047   0.000001   0.000005
     8  N   -0.043240  -0.034386  -0.047346  -0.000072   0.000003   0.000017
     9  C   -0.003729   0.004568  -0.000130   0.000391  -0.000025  -0.000086
    10  C    0.382766   0.382309   0.388498   0.000001   0.000000   0.000000
    11  H    0.000000   0.000000   0.000000   0.000386  -0.000012  -0.000013
    12  H    0.000000   0.000000   0.000000  -0.002114  -0.001263   0.000183
    13  H    0.000000   0.000000   0.000000  -0.002175   0.001217   0.000286
    14  H    0.000018  -0.000026  -0.000006  -0.000091   0.000393   0.001564
    15  H   -0.000003  -0.000029   0.000026  -0.000370  -0.000098   0.002204
    16  H    0.000115  -0.000246  -0.000042  -0.002639  -0.000052   0.000218
    17  H    0.007093   0.000103  -0.002405   0.000018   0.000001   0.000001
    18  H   -0.001406  -0.000135   0.006013  -0.000014   0.000001  -0.000001
    19  H    0.619250  -0.023454  -0.044765   0.000000   0.000000   0.000000
    20  H   -0.023454   0.512139  -0.025374   0.000000   0.000000   0.000000
    21  H   -0.044765  -0.025374   0.608882   0.000000   0.000000   0.000000
    22  C    0.000000   0.000000   0.000000   4.885618   0.378099   0.379588
    23  H    0.000000   0.000000   0.000000   0.378099   0.591995  -0.031878
    24  H    0.000000   0.000000   0.000000   0.379588  -0.031878   0.609853
    25  C    0.000000   0.000000   0.000000   0.358667  -0.039272  -0.052917
    26  H    0.000000   0.000000   0.000000  -0.035861  -0.009357   0.006768
    27  H   -0.000002   0.000000   0.000000  -0.040879   0.006445  -0.007690
    28  O    0.000000   0.000000   0.000000  -0.040687   0.004996   0.006345
    29  C    0.000000   0.000000   0.000000   0.004540  -0.000092  -0.000145
    30  H    0.000000   0.000000   0.000000  -0.000258   0.000005   0.000009
    31  H    0.000000   0.000000   0.000000   0.000012   0.000045  -0.000062
    32  H    0.000000   0.000000   0.000000   0.000047  -0.000065   0.000054
             25         26         27         28         29         30
     1  C   -0.000583  -0.000086   0.000025  -0.000005   0.000000   0.000000
     2  C    0.000265   0.000488  -0.000036   0.000009  -0.000001   0.000000
     3  O   -0.000038  -0.000011   0.000002   0.000000   0.000000   0.000000
     4  N   -0.053876   0.002585   0.000763   0.001909  -0.000128   0.000001
     5  C   -0.001858  -0.000353   0.003037  -0.000037   0.000001   0.000000
     6  C    0.000299   0.000074  -0.000602   0.000000   0.000000   0.000000
     7  O    0.000000   0.000000  -0.000011   0.000000   0.000000   0.000000
     8  N   -0.000062  -0.000032   0.000398   0.000000   0.000000   0.000000
     9  C   -0.000106  -0.001518   0.000301   0.000006   0.000001   0.000000
    10  C    0.000001   0.000000  -0.000004   0.000000   0.000000   0.000000
    11  H    0.000001  -0.000012   0.000001   0.000000   0.000000   0.000000
    12  H   -0.000033   0.001252  -0.000044  -0.000024  -0.000001   0.000000
    13  H    0.000049   0.000028  -0.000004   0.000000   0.000000   0.000000
    14  H   -0.001998  -0.000037   0.002358  -0.000070  -0.000002   0.000000
    15  H   -0.000241  -0.000008   0.000065   0.000001   0.000000   0.000000
    16  H    0.000244   0.004935  -0.000449  -0.000018  -0.000005   0.000000
    17  H   -0.000009   0.000141  -0.000044   0.000000   0.000000   0.000000
    18  H    0.000022  -0.000040   0.000025   0.000000   0.000000   0.000000
    19  H    0.000000   0.000000  -0.000002   0.000000   0.000000   0.000000
    20  H    0.000000   0.000000   0.000000   0.000000   0.000000   0.000000
    21  H    0.000000   0.000000   0.000000   0.000000   0.000000   0.000000
    22  C    0.358667  -0.035861  -0.040879  -0.040687   0.004540  -0.000258
    23  H   -0.039272  -0.009357   0.006445   0.004996  -0.000092   0.000005
    24  H   -0.052917   0.006768  -0.007690   0.006345  -0.000145   0.000009
    25  C    4.784371   0.359476   0.367662   0.233885  -0.034547   0.005377
    26  H    0.359476   0.686015  -0.062335  -0.039476  -0.006142  -0.000122
    27  H    0.367662  -0.062335   0.674321  -0.038250  -0.005852  -0.000100
    28  O    0.233885  -0.039476  -0.038250   8.209137   0.257500  -0.032604
    29  C   -0.034547  -0.006142  -0.005852   0.257500   4.710092   0.395246
    30  H    0.005377  -0.000122  -0.000100  -0.032604   0.395246   0.579797
    31  H   -0.008975  -0.002699   0.012992  -0.037106   0.371953  -0.034004
    32  H   -0.008846   0.013035  -0.002652  -0.037552   0.370723  -0.034684
             31         32
     1  C    0.000000   0.000000
     2  C    0.000000   0.000000
     3  O    0.000000   0.000000
     4  N    0.000013   0.000007
     5  C   -0.000002   0.000000
     6  C    0.000000   0.000000
     7  O    0.000000   0.000000
     8  N    0.000000   0.000000
     9  C    0.000000  -0.000002
    10  C    0.000000   0.000000
    11  H    0.000000   0.000000
    12  H    0.000000   0.000001
    13  H    0.000000   0.000000
    14  H    0.000003   0.000000
    15  H    0.000000   0.000000
    16  H   -0.000001   0.000009
    17  H    0.000000   0.000000
    18  H    0.000000   0.000000
    19  H    0.000000   0.000000
    20  H    0.000000   0.000000
    21  H    0.000000   0.000000
    22  C    0.000012   0.000047
    23  H    0.000045  -0.000065
    24  H   -0.000062   0.000054
    25  C   -0.008975  -0.008846
    26  H   -0.002699   0.013035
    27  H    0.012992  -0.002652
    28  O   -0.037106  -0.037552
    29  C    0.371953   0.370723
    30  H   -0.034004  -0.034684
    31  H    0.652204  -0.051688
    32  H   -0.051688   0.657278
 Mulliken atomic charges:
              1
     1  C   -0.406690
     2  C    0.565164
     3  O   -0.506588
     4  N   -0.456826
     5  C   -0.111131
     6  C    0.606752
     7  O   -0.529217
     8  N   -0.447922
     9  C   -0.173367
    10  C   -0.183474
    11  H    0.147303
    12  H    0.124260
    13  H    0.137221
    14  H    0.129720
    15  H    0.162261
    16  H    0.121021
    17  H    0.105018
    18  H    0.130413
    19  H    0.104360
    20  H    0.162203
    21  H    0.116388
    22  C   -0.080636
    23  H    0.126648
    24  H    0.128337
    25  C    0.093041
    26  H    0.083293
    27  H    0.090561
    28  O   -0.487957
    29  C   -0.063140
    30  H    0.121337
    31  H    0.097313
    32  H    0.094335
 Sum of Mulliken atomic charges =   0.00000
 Mulliken charges with hydrogens summed into heavy atoms:
              1
     1  C    0.002094
     2  C    0.565164
     3  O   -0.506588
     4  N   -0.456826
     5  C    0.180850
     6  C    0.606752
     7  O   -0.529217
     8  N   -0.447922
     9  C    0.183084
    10  C    0.199477
    22  C    0.174348
    25  C    0.266896
    28  O   -0.487957
    29  C    0.249846
 Sum of Mulliken charges with hydrogens summed into heavy atoms =   0.00000
 Electronic spatial extent (au):  <R**2>=           3575.7872
 Charge=              0.0000 electrons
 Dipole moment (field-independent basis, Debye):
    X=             -4.6091    Y=             -1.0069    Z=              3.2815  Tot=              5.7468
 Quadrupole moment (field-independent basis, Debye-Ang):
   XX=            -91.3658   YY=            -83.0786   ZZ=            -85.2913
   XY=             -1.7408   XZ=              6.3727   YZ=             -3.9944
 Traceless Quadrupole moment (field-independent basis, Debye-Ang):
   XX=             -4.7872   YY=              3.5000   ZZ=              1.2873
   XY=             -1.7408   XZ=              6.3727   YZ=             -3.9944
 Octapole moment (field-independent basis, Debye-Ang**2):
  XXX=            -22.6701  YYY=             -2.5831  ZZZ=              3.7065  XYY=            -27.3340
  XXY=            -24.4428  XXZ=             34.8999  XZZ=             -9.9132  YZZ=              7.0993
  YYZ=              5.7197  XYZ=             -7.9625
 Hexadecapole moment (field-independent basis, Debye-Ang**3):
 XXXX=          -2661.7099 YYYY=          -1252.2736 ZZZZ=           -567.2189 XXXY=             80.4338
 XXXZ=             28.6195 YYYX=            -17.2296 YYYZ=              6.7550 ZZZX=             22.2243
 ZZZY=             -9.3633 XXYY=           -634.6198 XXZZ=           -583.0519 YYZZ=           -303.9465
 XXYZ=            -41.5957 YYXZ=              9.0616 ZZXY=             17.1410
 N-N= 9.765349253846D+02 E-N=-3.558573581923D+03  KE= 6.826207748409D+02
 Calling FoFJK, ICntrl=      2127 FMM=F ISym2X=0 I1Cent= 0 IOpClX= 0 NMat=1 NMatS=1 NMatT=0.
 ***** Axes restored to original set *****
 -------------------------------------------------------------------
 Center     Atomic                   Forces (Hartrees/Bohr)
 Number     Number              X              Y              Z
 -------------------------------------------------------------------
      1        6          -0.000001267   -0.000004787    0.000000099
      2        6          -0.000112206   -0.000224488   -0.000336338
      3        8          -0.000006023    0.000006829    0.000000145
      4        7           0.000017596    0.000524765    0.000512436
      5        6           0.000342733   -0.000659290   -0.000223444
      6        6          -0.000230083    0.000359646    0.000045367
      7        8          -0.000005424   -0.000001335    0.000007740
      8        7           0.000004279   -0.000007337    0.000002841
      9        6          -0.000005854    0.000002756    0.000000946
     10        6           0.000005224    0.000013124    0.000001458
     11        1           0.000002393   -0.000000662   -0.000002083
     12        1           0.000002576    0.000000251   -0.000004536
     13        1           0.000002828    0.000001759   -0.000003955
     14        1           0.000001123    0.000003427    0.000005925
     15        1           0.000003227    0.000007101    0.000000825
     16        1          -0.000002748   -0.000002693   -0.000004018
     17        1          -0.000002763   -0.000000540    0.000001627
     18        1          -0.000001707    0.000001113   -0.000000847
     19        1          -0.000000499   -0.000003599    0.000004798
     20        1          -0.000002354    0.000000345    0.000004188
     21        1          -0.000001603    0.000001598    0.000004749
     22        6          -0.000001688    0.000000937   -0.000003541
     23        1          -0.000001140   -0.000002490    0.000000418
     24        1           0.000001009   -0.000002472    0.000000595
     25        6          -0.000007255   -0.000005815   -0.000002419
     26        1          -0.000001643    0.000000437   -0.000003186
     27        1           0.000004021    0.000001184    0.000001624
     28        8           0.000002814    0.000000364   -0.000003169
     29        6          -0.000003011   -0.000003467   -0.000001215
     30        1          -0.000000389   -0.000003303   -0.000003465
     31        1          -0.000000755   -0.000001605   -0.000001834
     32        1          -0.000001410   -0.000001753   -0.000001729
 -------------------------------------------------------------------
 Cartesian Forces:  Max     0.000659290 RMS     0.000125077

 GradGradGradGradGradGradGradGradGradGradGradGradGradGradGradGradGradGrad
 Berny optimization.
 Internal  Forces:  Max     0.000386050 RMS     0.000051785
 Search for a local minimum.
 Step number   1 out of a maximum of  155 on scan point     1 out of    37
 All quantities printed in internal units (Hartrees-Bohrs-Radians)
 Mixed Optimization -- En-DIIS/RFO-DIIS
 Second derivative matrix not updated -- first step.
 ITU=  0
     Eigenvalues ---    0.00372   0.00482   0.00731   0.00856   0.00895
     Eigenvalues ---    0.00975   0.01060   0.01171   0.01333   0.01507
     Eigenvalues ---    0.01548   0.01942   0.02094   0.02119   0.04120
     Eigenvalues ---    0.05387   0.05512   0.05887   0.06095   0.06907
     Eigenvalues ---    0.07298   0.07462   0.07495   0.07623   0.07624
     Eigenvalues ---    0.09463   0.10039   0.10515   0.11079   0.11724
     Eigenvalues ---    0.12392   0.12920   0.13595   0.16000   0.16000
     Eigenvalues ---    0.16000   0.16000   0.16000   0.16000   0.16000
     Eigenvalues ---    0.16000   0.16000   0.16000   0.16000   0.16000
     Eigenvalues ---    0.21923   0.21954   0.22210   0.23048   0.24055
     Eigenvalues ---    0.24333   0.24678   0.24944   0.24992   0.25000
     Eigenvalues ---    0.25000   0.25000   0.27886   0.29446   0.30225
     Eigenvalues ---    0.33266   0.33310   0.33574   0.33594   0.33919
     Eigenvalues ---    0.33942   0.34022   0.34116   0.34184   0.34198
     Eigenvalues ---    0.34323   0.34414   0.34442   0.34573   0.34863
     Eigenvalues ---    0.34869   0.35108   0.35412   0.36033   0.36566
     Eigenvalues ---    0.36936   0.37697   0.43387   0.43867   0.48907
     Eigenvalues ---    0.51048   0.91439   0.927121000.000001000.00000
     Eigenvalues --- 1000.000001000.000001000.000001000.000001000.00000
     Eigenvalues --- 1000.000001000.000001000.000001000.000001000.00000
     Eigenvalues --- 1000.000001000.000001000.000001000.000001000.00000
     Eigenvalues --- 1000.000001000.000001000.000001000.000001000.00000
     Eigenvalues --- 1000.000001000.000001000.000001000.000001000.00000
     Eigenvalues --- 1000.000001000.000001000.000001000.000001000.00000
     Eigenvalues --- 1000.000001000.000001000.000001000.000001000.00000
     Eigenvalues --- 1000.000001000.000001000.000001000.000001000.00000
     Eigenvalues --- 1000.000001000.000001000.000001000.000001000.00000
     Eigenvalues --- 1000.000001000.000001000.000001000.000001000.00000
     Eigenvalues --- 1000.000001000.000001000.000001000.000001000.00000
 RFO step:  Lambda=-1.64558055D-08 EMin= 3.72396336D-03
 Linear search not attempted -- first point.
 Iteration  1 RMS(Cart)=  0.00018844 RMS(Int)=  0.00000001
 Iteration  2 RMS(Cart)=  0.00000002 RMS(Int)=  0.00000000
 Iteration  1 RMS(Cart)=  0.00000000 RMS(Int)=  0.00000000
 Variable       Old X    -DE/DX   Delta X   Delta X   Delta X     New X
                                 (Linear)    (Quad)   (Total)
    R1        2.87517   0.00000   0.00000   0.00001   0.00001   2.87518
    R2        2.05888   0.00000   0.00000   0.00000   0.00000   2.05887
    R3        2.06789   0.00000   0.00000   0.00001   0.00001   2.06790
    R4        2.06997   0.00000   0.00000   0.00000   0.00000   2.06997
    R5        2.31708   0.00001   0.00000   0.00001   0.00001   2.31709
    R6        2.60984   0.00000   0.00000   0.00000   0.00000   2.60984
    R7        2.77331  -0.00001   0.00000  -0.00002  -0.00002   2.77328
    R8        2.76506  -0.00001   0.00000  -0.00002  -0.00002   2.76504
    R9        2.92389  -0.00001   0.00000  -0.00003  -0.00003   2.92387
   R10        2.06636   0.00000   0.00000   0.00000   0.00000   2.06637
   R11        2.06590   0.00000   0.00000   0.00001   0.00001   2.06591
   R12        2.32277   0.00001   0.00000   0.00001   0.00001   2.32278
   R13        2.58822   0.00001   0.00000   0.00001   0.00001   2.58824
   R14        2.74808   0.00000   0.00000   0.00001   0.00001   2.74809
   R15        2.75943  -0.00001   0.00000  -0.00002  -0.00002   2.75941
   R16        2.05012   0.00000   0.00000  -0.00001  -0.00001   2.05011
   R17        2.07020   0.00000   0.00000   0.00000   0.00000   2.07020
   R18        2.07427   0.00000   0.00000   0.00001   0.00001   2.07428
   R19        2.07135   0.00000   0.00000   0.00001   0.00001   2.07136
   R20        2.05500   0.00000   0.00000   0.00000   0.00000   2.05501
   R21        2.07467   0.00000   0.00000   0.00000   0.00000   2.07467
   R22        2.05899   0.00000   0.00000  -0.00001  -0.00001   2.05898
   R23        2.07293   0.00000   0.00000   0.00001   0.00001   2.07293
   R24        2.89081   0.00000   0.00000   0.00000   0.00000   2.89081
   R25        2.08588   0.00000   0.00000   0.00001   0.00001   2.08588
   R26        2.08510   0.00000   0.00000  -0.00001  -0.00001   2.08509
   R27        2.66615   0.00000   0.00000   0.00001   0.00001   2.66615
   R28        2.67195   0.00000   0.00000   0.00000   0.00000   2.67195
   R29        2.06374   0.00000   0.00000   0.00000   0.00000   2.06375
   R30        2.08021   0.00000   0.00000   0.00000   0.00000   2.08021
   R31        2.08056   0.00000   0.00000   0.00000   0.00000   2.08056
    A1        1.87063   0.00000   0.00000  -0.00001  -0.00001   1.87062
    A2        1.96522   0.00000   0.00000   0.00002   0.00002   1.96524
    A3        1.94336   0.00000   0.00000   0.00003   0.00003   1.94339
    A4        1.90824   0.00000   0.00000  -0.00002  -0.00002   1.90822
    A5        1.89366   0.00000   0.00000  -0.00001  -0.00001   1.89364
    A6        1.88157   0.00000   0.00000  -0.00001  -0.00001   1.88156
    A7        2.11663   0.00000   0.00000  -0.00002  -0.00002   2.11662
    A8        2.06957   0.00000   0.00000  -0.00001  -0.00001   2.06956
    A9        2.09662   0.00001   0.00000   0.00002   0.00002   2.09665
   A10        2.02140  -0.00002   0.00000   0.00004   0.00004   2.02144
   A11        2.16560   0.00008   0.00000   0.00001   0.00001   2.16561
   A12        2.04156  -0.00002   0.00000  -0.00003  -0.00003   2.04154
   A13        2.18032  -0.00001   0.00000  -0.00003  -0.00003   2.18029
   A14        1.87467   0.00002   0.00000   0.00005   0.00005   1.87473
   A15        1.90713  -0.00002   0.00000  -0.00006  -0.00006   1.90707
   A16        1.82871   0.00015   0.00000   0.00006   0.00006   1.82877
   A17        1.78348  -0.00014   0.00000   0.00000   0.00000   1.78348
   A18        1.86928   0.00000   0.00000  -0.00001  -0.00001   1.86926
   A19        1.97559   0.00000   0.00000  -0.00002  -0.00002   1.97557
   A20        2.18122   0.00001   0.00000   0.00005   0.00005   2.18127
   A21        2.12388  -0.00001   0.00000  -0.00003  -0.00003   2.12385
   A22        2.22189   0.00002   0.00000   0.00008   0.00008   2.22197
   A23        2.04822  -0.00001   0.00000  -0.00003  -0.00003   2.04818
   A24        1.99314  -0.00001   0.00000  -0.00005  -0.00005   1.99309
   A25        1.93908   0.00001   0.00000   0.00004   0.00004   1.93912
   A26        1.89835   0.00000   0.00000  -0.00003  -0.00003   1.89832
   A27        1.94513   0.00000   0.00000   0.00001   0.00001   1.94515
   A28        1.89043   0.00000   0.00000  -0.00002  -0.00002   1.89041
   A29        1.89834   0.00000   0.00000   0.00001   0.00001   1.89834
   A30        1.89114   0.00000   0.00000  -0.00001  -0.00001   1.89113
   A31        1.91768   0.00000   0.00000  -0.00001  -0.00001   1.91766
   A32        1.89721   0.00000   0.00000   0.00001   0.00001   1.89722
   A33        1.93016   0.00000   0.00000   0.00001   0.00001   1.93017
   A34        1.91822   0.00000   0.00000  -0.00003  -0.00003   1.91820
   A35        1.89201   0.00000   0.00000   0.00002   0.00002   1.89203
   A36        1.90861   0.00000   0.00000   0.00000   0.00000   1.90861
   A37        1.92109   0.00000   0.00000  -0.00001  -0.00001   1.92108
   A38        1.91587   0.00000   0.00000   0.00000   0.00000   1.91587
   A39        1.97400   0.00000   0.00000   0.00000   0.00000   1.97400
   A40        1.86059   0.00000   0.00000   0.00000   0.00000   1.86060
   A41        1.89576   0.00000   0.00000   0.00002   0.00002   1.89577
   A42        1.89283   0.00000   0.00000  -0.00001  -0.00001   1.89282
   A43        1.92238   0.00000   0.00000   0.00000   0.00000   1.92239
   A44        1.92908   0.00000   0.00000   0.00000   0.00000   1.92908
   A45        1.86804   0.00000   0.00000  -0.00001  -0.00001   1.86803
   A46        1.86975   0.00000   0.00000   0.00002   0.00002   1.86977
   A47        1.93736   0.00000   0.00000   0.00001   0.00001   1.93737
   A48        1.93802   0.00000   0.00000  -0.00002  -0.00002   1.93800
   A49        1.97379   0.00000   0.00000   0.00000   0.00000   1.97378
   A50        1.87102   0.00000   0.00000   0.00001   0.00001   1.87103
   A51        1.94981   0.00000   0.00000   0.00001   0.00001   1.94982
   A52        1.95037   0.00000   0.00000  -0.00001  -0.00001   1.95037
   A53        1.90083   0.00000   0.00000   0.00000   0.00000   1.90083
   A54        1.90058   0.00000   0.00000   0.00000   0.00000   1.90057
   A55        1.89022   0.00000   0.00000   0.00000   0.00000   1.89022
    D1       -0.14898   0.00000   0.00000  -0.00001  -0.00001  -0.14899
    D2        2.96379   0.00000   0.00000  -0.00017  -0.00017   2.96362
    D3       -2.24805   0.00000   0.00000   0.00001   0.00001  -2.24804
    D4        0.86472   0.00000   0.00000  -0.00015  -0.00015   0.86457
    D5        1.91948   0.00000   0.00000  -0.00001  -0.00001   1.91947
    D6       -1.25093   0.00000   0.00000  -0.00018  -0.00018  -1.25111
    D7        2.99308   0.00006   0.00000   0.00028   0.00028   2.99336
    D8        0.21218  -0.00005   0.00000   0.00022   0.00022   0.21239
    D9       -0.17700   0.00006   0.00000   0.00012   0.00012  -0.17688
   D10       -2.95790  -0.00005   0.00000   0.00006   0.00006  -2.95784
   D11        1.19852  -0.00039   0.00000   0.00000   0.00000   1.19852
   D12       -2.93751  -0.00015   0.00000   0.00012   0.00012  -2.93739
   D13       -0.91543  -0.00015   0.00000   0.00010   0.00010  -0.91533
   D14       -2.27725  -0.00026   0.00000   0.00006   0.00006  -2.27719
   D15       -0.13009  -0.00002   0.00000   0.00018   0.00018  -0.12991
   D16        1.89199  -0.00002   0.00000   0.00016   0.00016   1.89215
   D17        0.05240   0.00006   0.00000   0.00008   0.00008   0.05248
   D18        2.09514   0.00006   0.00000   0.00008   0.00008   2.09522
   D19       -2.07159   0.00006   0.00000   0.00006   0.00006  -2.07152
   D20       -2.72471  -0.00006   0.00000   0.00001   0.00001  -2.72470
   D21       -0.68196  -0.00006   0.00000   0.00001   0.00001  -0.68196
   D22        1.43449  -0.00006   0.00000  -0.00001  -0.00001   1.43449
   D23       -2.90505   0.00012   0.00000  -0.00011  -0.00011  -2.90516
   D24        0.31166   0.00012   0.00000   0.00000   0.00000   0.31166
   D25        1.21101  -0.00006   0.00000  -0.00023  -0.00023   1.21078
   D26       -1.85547  -0.00006   0.00000  -0.00011  -0.00011  -1.85558
   D27       -0.73676  -0.00006   0.00000  -0.00023  -0.00023  -0.73699
   D28        2.47995  -0.00006   0.00000  -0.00012  -0.00012   2.47983
   D29       -0.17650   0.00000   0.00000  -0.00017  -0.00017  -0.17667
   D30       -3.09123   0.00000   0.00000  -0.00012  -0.00012  -3.09136
   D31        3.04624   0.00000   0.00000  -0.00005  -0.00005   3.04620
   D32        0.13151   0.00000   0.00000   0.00000   0.00000   0.13151
   D33        0.47245   0.00000   0.00000   0.00010   0.00010   0.47254
   D34        2.55171   0.00000   0.00000   0.00008   0.00008   2.55179
   D35       -1.64766   0.00000   0.00000   0.00005   0.00005  -1.64761
   D36       -2.88995   0.00000   0.00000   0.00005   0.00005  -2.88990
   D37       -0.81069   0.00000   0.00000   0.00003   0.00003  -0.81065
   D38        1.27313   0.00000   0.00000   0.00001   0.00001   1.27314
   D39       -2.29357   0.00000   0.00000   0.00008   0.00008  -2.29349
   D40       -0.19386   0.00000   0.00000   0.00005   0.00005  -0.19381
   D41        1.90164   0.00000   0.00000   0.00006   0.00006   1.90170
   D42        1.04544   0.00000   0.00000   0.00011   0.00011   1.04555
   D43       -3.13803   0.00000   0.00000   0.00007   0.00007  -3.13795
   D44       -1.04253   0.00000   0.00000   0.00008   0.00008  -1.04245
   D45        1.10537   0.00000   0.00000  -0.00022  -0.00022   1.10516
   D46       -0.95736   0.00000   0.00000  -0.00025  -0.00025  -0.95761
   D47       -3.06992   0.00000   0.00000  -0.00022  -0.00022  -3.07014
   D48       -1.03279   0.00000   0.00000  -0.00022  -0.00022  -1.03301
   D49       -3.09553   0.00000   0.00000  -0.00025  -0.00025  -3.09578
   D50        1.07510   0.00000   0.00000  -0.00022  -0.00022   1.07488
   D51       -3.04840   0.00000   0.00000  -0.00023  -0.00023  -3.04862
   D52        1.17205   0.00000   0.00000  -0.00026  -0.00026   1.17179
   D53       -0.94051   0.00000   0.00000  -0.00023  -0.00023  -0.94074
   D54        3.13607   0.00000   0.00000  -0.00006  -0.00006   3.13600
   D55       -1.04877   0.00000   0.00000  -0.00007  -0.00007  -1.04884
   D56        1.02918   0.00000   0.00000  -0.00005  -0.00005   1.02913
   D57       -3.13702   0.00000   0.00000   0.00002   0.00002  -3.13700
   D58       -1.05589   0.00000   0.00000   0.00003   0.00003  -1.05587
   D59        1.06502   0.00000   0.00000   0.00003   0.00003   1.06505
         Item               Value     Threshold  Converged?
 Maximum Force            0.000020     0.000450     YES
 RMS     Force            0.000004     0.000300     YES
 Maximum Displacement     0.000590     0.001800     YES
 RMS     Displacement     0.000188     0.001200     YES
 Predicted change in Energy=-8.228202D-09
 Optimization completed.
    -- Stationary point found.
                           ----------------------------
                           !   Optimized Parameters   !
                           ! (Angstroms and Degrees)  !
 --------------------------                            --------------------------
 ! Name  Definition              Value          Derivative Info.                !
 --------------------------------------------------------------------------------
 ! R1    R(1,2)                  1.5215         -DE/DX =    0.0                 !
 ! R2    R(1,11)                 1.0895         -DE/DX =    0.0                 !
 ! R3    R(1,12)                 1.0943         -DE/DX =    0.0                 !
 ! R4    R(1,13)                 1.0954         -DE/DX =    0.0                 !
 ! R5    R(2,3)                  1.2261         -DE/DX =    0.0                 !
 ! R6    R(2,4)                  1.3811         -DE/DX =    0.0                 !
 ! R7    R(4,5)                  1.4676         -DE/DX =    0.0                 !
 ! R8    R(4,22)                 1.4632         -DE/DX =    0.0                 !
 ! R9    R(5,6)                  1.5473         -DE/DX =    0.0                 !
 ! R10   R(5,14)                 1.0935         -DE/DX =    0.0                 !
 ! R11   R(5,15)                 1.0932         -DE/DX =    0.0                 !
 ! R12   R(6,7)                  1.2292         -DE/DX =    0.0                 !
 ! R13   R(6,8)                  1.3696         -DE/DX =    0.0                 !
 ! R14   R(8,9)                  1.4542         -DE/DX =    0.0                 !
 ! R15   R(8,10)                 1.4602         -DE/DX =    0.0                 !
 ! R16   R(9,16)                 1.0849         -DE/DX =    0.0                 !
 ! R17   R(9,17)                 1.0955         -DE/DX =    0.0                 !
 ! R18   R(9,18)                 1.0977         -DE/DX =    0.0                 !
 ! R19   R(10,19)                1.0961         -DE/DX =    0.0                 !
 ! R20   R(10,20)                1.0875         -DE/DX =    0.0                 !
 ! R21   R(10,21)                1.0979         -DE/DX =    0.0                 !
 ! R22   R(22,23)                1.0896         -DE/DX =    0.0                 !
 ! R23   R(22,24)                1.0969         -DE/DX =    0.0                 !
 ! R24   R(22,25)                1.5298         -DE/DX =    0.0                 !
 ! R25   R(25,26)                1.1038         -DE/DX =    0.0                 !
 ! R26   R(25,27)                1.1034         -DE/DX =    0.0                 !
 ! R27   R(25,28)                1.4109         -DE/DX =    0.0                 !
 ! R28   R(28,29)                1.4139         -DE/DX =    0.0                 !
 ! R29   R(29,30)                1.0921         -DE/DX =    0.0                 !
 ! R30   R(29,31)                1.1008         -DE/DX =    0.0                 !
 ! R31   R(29,32)                1.101          -DE/DX =    0.0                 !
 ! A1    A(2,1,11)             107.1789         -DE/DX =    0.0                 !
 ! A2    A(2,1,12)             112.5987         -DE/DX =    0.0                 !
 ! A3    A(2,1,13)             111.3465         -DE/DX =    0.0                 !
 ! A4    A(11,1,12)            109.3344         -DE/DX =    0.0                 !
 ! A5    A(11,1,13)            108.4985         -DE/DX =    0.0                 !
 ! A6    A(12,1,13)            107.806          -DE/DX =    0.0                 !
 ! A7    A(1,2,3)              121.2742         -DE/DX =    0.0                 !
 ! A8    A(1,2,4)              118.5774         -DE/DX =    0.0                 !
 ! A9    A(3,2,4)              120.1277         -DE/DX =    0.0                 !
 ! A10   A(2,4,5)              115.8178         -DE/DX =    0.0                 !
 ! A11   A(2,4,22)             124.0798         -DE/DX =    0.0001              !
 ! A12   A(5,4,22)             116.973          -DE/DX =    0.0                 !
 ! A13   A(4,5,6)              124.9234         -DE/DX =    0.0                 !
 ! A14   A(4,5,14)             107.4109         -DE/DX =    0.0                 !
 ! A15   A(4,5,15)             109.2707         -DE/DX =    0.0                 !
 ! A16   A(6,5,14)             104.7776         -DE/DX =    0.0002              !
[...]
   D21       -0.65809  -0.00073  -0.00085   0.00819   0.00734  -0.65075
   D22        1.47836  -0.00068  -0.00043   0.00979   0.00937   1.48773
   D23       -2.14332  -0.00128   0.00697   0.00188   0.00883  -2.13449
   D24        1.18432  -0.00415   0.00000   0.00000   0.00000   1.18432
   D25        1.99550  -0.00013   0.01554   0.00359   0.01916   2.01467
   D26       -0.96004  -0.00300   0.00857   0.00172   0.01033  -0.94971
   D27       -0.01515  -0.00011   0.01431   0.00379   0.01809   0.00294
   D28       -2.97069  -0.00298   0.00734   0.00191   0.00926  -2.96144
   D29       -0.24221   0.00129  -0.00195  -0.02532  -0.02727  -0.26948
   D30        2.98246   0.00138   0.00216   0.00934   0.01150   2.99396
   D31        3.09205  -0.00155  -0.00910  -0.02725  -0.03634   3.05571
   D32        0.03353  -0.00146  -0.00499   0.00742   0.00243   0.03596
   D33       -0.22215   0.00002  -0.00014   0.03860   0.03845  -0.18370
   D34        1.91177   0.00008  -0.00017   0.03885   0.03866   1.95044
   D35       -2.28741   0.00001   0.00029   0.03730   0.03757  -2.24983
   D36        2.83851  -0.00005  -0.00415   0.00490   0.00076   2.83928
   D37       -1.31075   0.00000  -0.00418   0.00514   0.00098  -1.30977
   D38        0.77326  -0.00007  -0.00372   0.00360  -0.00011   0.77314
   D39       -2.18966  -0.00012  -0.00329  -0.06669  -0.06999  -2.25964
   D40       -0.09487  -0.00007  -0.00344  -0.06454  -0.06799  -0.16286
   D41        2.00188  -0.00007  -0.00352  -0.06562  -0.06915   1.93273
   D42        1.02679  -0.00003   0.00046  -0.03559  -0.03512   0.99167
   D43        3.12157   0.00002   0.00031  -0.03344  -0.03312   3.08845
   D44       -1.06486   0.00002   0.00023  -0.03452  -0.03428  -1.09914
   D45        1.03834  -0.00017  -0.00168  -0.01794  -0.01962   1.01872
   D46       -1.04020  -0.00007  -0.00216  -0.01574  -0.01791  -1.05810
   D47        3.13975  -0.00014  -0.00180  -0.01680  -0.01860   3.12115
   D48       -1.09432  -0.00005  -0.00170  -0.01644  -0.01814  -1.11246
   D49        3.11032   0.00006  -0.00218  -0.01425  -0.01643   3.09389
   D50        1.00709  -0.00002  -0.00182  -0.01530  -0.01712   0.98997
   D51       -3.09340  -0.00013  -0.00116  -0.01823  -0.01939  -3.11279
   D52        1.11124  -0.00002  -0.00163  -0.01604  -0.01767   1.09357
   D53       -0.99199  -0.00009  -0.00127  -0.01709  -0.01837  -1.01036
   D54        3.13756   0.00000   0.00020  -0.00477  -0.00457   3.13299
   D55       -1.05392  -0.00002   0.00008  -0.00466  -0.00457  -1.05849
   D56        1.02391  -0.00001   0.00017  -0.00467  -0.00451   1.01941
   D57        3.14143   0.00001  -0.00026   0.00075   0.00049  -3.14126
   D58       -1.06109   0.00003  -0.00029   0.00100   0.00072  -1.06037
   D59        1.06027   0.00000  -0.00025   0.00094   0.00069   1.06096
         Item               Value     Threshold  Converged?
 Maximum Force            0.000483     0.000450     NO 
 RMS     Force            0.000147     0.000300     YES
 Maximum Displacement     0.113669     0.001800     NO 
 RMS     Displacement     0.022643     0.001200     NO 
 Predicted change in Energy=-4.086509D-05
 GradGradGradGradGradGradGradGradGradGradGradGradGradGradGradGradGradGrad

                          Input orientation:                          
 ---------------------------------------------------------------------
 Center     Atomic      Atomic             Coordinates (Angstroms)
 Number     Number       Type             X           Y           Z
 ---------------------------------------------------------------------
      1          6           0        0.810511    3.212118   -0.410147
      2          6           0       -0.181047    2.230064    0.199186
      3          8           0       -1.315152    2.577039    0.485789
      4          7           0        0.218794    0.901487    0.360627
      5          6           0       -0.717643    0.072997    1.149431
      6          6           0       -2.104894   -0.276710    0.558576
      7          8           0       -3.099777    0.050169    1.193114
      8          7           0       -2.188744   -1.113353   -0.530828
      9          6           0       -1.088818   -1.476331   -1.403387
     10          6           0       -3.503706   -1.576394   -0.952742
     11          1           0        0.232376    4.057488   -0.782945
     12          1           0        1.393632    2.778759   -1.227150
     13          1           0        1.509108    3.587306    0.345804
     14          1           0       -0.203436   -0.866550    1.374182
     15          1           0       -0.962905    0.576865    2.087816
     16          1           0       -0.219186   -0.858501   -1.200012
     17          1           0       -0.818565   -2.536908   -1.297730
     18          1           0       -1.373311   -1.308444   -2.449893
     19          1           0       -3.497177   -2.667094   -1.068851
     20          1           0       -4.229137   -1.289732   -0.194137
     21          1           0       -3.788291   -1.129274   -1.914372
     22          6           0        1.641662    0.599023    0.597520
     23          1           0        2.246734    1.477800    0.380730
     24          1           0        1.803385    0.364484    1.658129
     25          6           0        2.194665   -0.550326   -0.244431
     26          1           0        2.071699   -0.327050   -1.318106
     27          1           0        1.658748   -1.491952   -0.040411
     28          8           0        3.559981   -0.674507    0.094563
     29          6           0        4.211080   -1.716599   -0.604077
     30          1           0        5.251360   -1.727320   -0.271883
     31          1           0        3.758491   -2.697081   -0.389462
     32          1           0        4.186483   -1.555807   -1.692991
 ---------------------------------------------------------------------
                    Distance matrix (angstroms):
                    1          2          3          4          5
     1  C    0.000000
     2  C    1.522795   0.000000
     3  O    2.392587   1.220134   0.000000
     4  N    2.506639   1.396801   2.275111   0.000000
     5  C    3.823823   2.417404   2.658509   1.478351   0.000000
     6  C    4.648648   3.180293   2.961903   2.612826   1.547860
     7  O    5.278136   3.776085   3.173368   3.525718   2.382645
     8  N    5.264959   3.967645   3.926279   3.263512   2.528801
     9  C    5.155146   4.138799   4.477725   3.236605   3.009164
    10  C    6.468131   5.182289   4.910208   4.660669   3.860281
    11  H    1.089893   2.115414   2.489228   3.356826   4.529104
    12  H    1.093309   2.194338   3.211287   2.724964   4.174538
    13  H    1.095567   2.172609   3.002779   2.979724   4.237288
    14  H    4.565902   3.312120   3.726052   2.081232   1.094381
    15  H    4.040964   2.628934   2.586748   2.117776   1.092979
    16  H    4.272482   3.390936   3.980703   2.392693   2.576049
    17  H    6.040943   5.036984   5.438749   3.955859   3.579160
    18  H    5.418960   4.578226   4.870173   3.913773   3.910679
    19  H    7.318142   6.048702   5.888894   5.346646   4.489397
    20  H    6.761018   5.378726   4.889327   4.989318   3.999099
    21  H    6.500720   5.363254   5.061022   5.035508   4.501247
    22  C    2.921383   2.478152   3.559183   1.473824   2.479441
    23  H    2.386647   2.548133   3.729128   2.108336   3.369259
    24  H    3.656855   3.089802   3.999382   2.117266   2.588304
    25  C    4.012398   3.683935   4.757358   2.525455   3.288300
    26  H    3.865321   3.730400   4.812332   2.785805   3.745558
    27  H    4.794214   4.158805   5.067312   2.821852   3.084156
    28  O    4.787503   4.737381   5.873035   3.703793   4.468733
    29  C    5.991138   5.959209   7.082541   4.870665   5.528992
    30  H    6.643668   6.737496   7.888008   5.712917   6.394550
    31  H    6.603761   6.335869   7.370500   5.103115   5.484277
    32  H    5.981304   6.081816   7.217721   5.098843   5.897696
                    6          7          8          9         10
     6  C    0.000000
     7  O    1.224451   0.000000
     8  N    1.376155   2.270625   0.000000
     9  C    2.514120   3.621599   1.450155   0.000000
    10  C    2.435145   2.722786   1.456552   2.458613   0.000000
    11  H    5.103702   5.573747   5.715153   5.723081   6.762230
    12  H    4.976384   5.787366   5.335430   4.929443   6.559465
    13  H    5.294989   5.871209   6.044732   5.953932   7.312887
    14  H    2.151435   3.043346   2.762504   2.978359   4.100029
    15  H    2.090766   2.375736   3.349151   4.052156   4.509676
    16  H    2.643295   3.853640   2.095690   1.085972   3.371140
    17  H    3.195154   4.254551   2.119443   1.099556   2.872558
    18  H    3.263522   4.254176   2.094231   1.097405   2.617602
    19  H    3.209503   3.557799   2.101328   2.707402   1.096883
    20  H    2.470869   2.235006   2.075493   3.370268   1.088074
    21  H    3.110653   3.394349   2.114946   2.769243   1.098015
    22  C    3.847740   4.810116   4.344814   3.970673   5.797461
    23  H    4.695381   5.593146   5.217133   4.799570   6.646338
    24  H    4.110328   4.935184   4.786714   4.596338   6.224859
    25  C    4.382453   5.518899   4.428690   3.603044   5.833176
    26  H    4.579127   5.761310   4.403346   3.364073   5.725338
    27  H    4.000075   5.152017   3.897056   3.067094   5.243130
    28  O    5.697751   6.788546   5.799271   4.949557   7.197633
    29  C    6.581533   7.733046   6.428610   5.365217   7.723934
    30  H    7.543767   8.662978   7.469884   6.445243   8.782798
    31  H    6.413755   7.555645   6.156118   5.100459   7.369717
    32  H    6.803461   7.999897   6.495377   5.283843   7.725762
                   11         12         13         14         15
    11  H    0.000000
    12  H    1.783531   0.000000
    13  H    1.767821   1.772363   0.000000
    14  H    5.393448   4.754559   4.881312   0.000000
    15  H    4.667408   4.624998   4.267108   1.780313   0.000000
    16  H    4.954270   3.978891   5.014155   2.574255   3.663769
    17  H    6.697428   5.758048   6.754648   3.210544   4.601992
    18  H    5.843815   5.084909   6.331874   4.023361   4.930885
    19  H    7.694889   7.321365   8.135211   4.478739   5.187519
    20  H    6.988888   7.016784   7.550132   4.341080   4.399972
    21  H    6.659459   6.526663   7.444257   4.871838   5.187603
    22  C    3.981551   2.853452   3.001795   2.481026   3.000874
    23  H    3.473696   2.237310   2.235023   3.533590   3.745345
    24  H    4.697360   3.784370   3.492188   2.371371   2.807508
    25  C    5.037115   3.562330   4.235371   2.910463   4.084138
    26  H    4.784735   3.180267   4.290372   3.565910   4.650397
    27  H    5.777731   4.440451   5.096118   2.420729   3.960103
    28  O    5.851047   4.285445   4.736270   3.979650   5.098577
    29  C    7.014425   5.341767   6.027797   4.911623   6.267088
    30  H    7.675636   6.008274   6.529261   5.762400   7.035236
    31  H    7.629713   6.023214   6.715197   4.707244   6.256773
    32  H    6.926199   5.177402   6.146270   5.399446   6.734909
                   16         17         18         19         20
    16  H    0.000000
    17  H    1.784896   0.000000
    18  H    1.759732   1.773231   0.000000
    19  H    3.746123   2.691523   2.874720   0.000000
    20  H    4.156615   3.795440   3.639303   1.788300   0.000000
    21  H    3.649950   3.343793   2.480123   1.778916   1.783060
    22  C    2.969554   4.413473   4.692038   6.312842   6.217748
    23  H    3.746707   5.322703   5.374040   7.230073   7.065876
    24  H    3.708835   4.902020   5.455817   6.687514   6.523698
    25  C    2.614342   3.759720   4.262541   6.128412   6.466411
    26  H    2.354685   3.638340   3.756617   6.045686   6.472295
    27  H    2.296208   2.968141   3.877198   5.387227   5.893361
    28  O    3.998986   4.957690   5.586905   7.424784   7.818709
    29  C    4.551784   5.143092   5.895681   7.780533   8.460941
    30  H    5.616329   6.209009   6.986091   8.834888   9.490909
    31  H    4.456376   4.669052   5.701674   7.287468   8.113013
    32  H    4.487671   5.115594   5.616530   7.788655   8.552194
                   21         22         23         24         25
    21  H    0.000000
    22  C    6.227439   0.000000
    23  H    6.963179   1.088743   0.000000
    24  H    6.801538   1.098205   1.751508   0.000000
    25  C    6.238561   1.528299   2.122931   2.147025   0.000000
    26  H    5.944627   2.170753   2.484787   3.067277   1.103517
    27  H    5.771785   2.186189   3.056553   2.520380   1.102492
    28  O    7.631497   2.356861   2.537506   2.570967   1.412242
    29  C    8.127224   3.661673   3.877201   3.904546   2.357004
    30  H    9.207102   4.381513   4.441451   4.470920   3.275585
    31  H    7.857308   4.039728   4.506467   4.169922   2.659914
    32  H    7.989241   4.045473   4.155204   4.538357   2.660199
                   26         27         28         29         30
    26  H    0.000000
    27  H    1.777647   0.000000
    28  O    2.081188   2.073915   0.000000
    29  C    2.649082   2.623468   1.413500   0.000000
    30  H    3.628441   3.607748   2.025700   1.092085   0.000000
    31  H    3.053636   2.446036   2.089137   1.101019   1.784074
    32  H    2.474408   3.020686   2.089149   1.100996   1.784076
                   31         32
    31  H    0.000000
    32  H    1.784621   0.000000
 Stoichiometry    C9H18N2O3
 Framework group  C1[X(C9H18N2O3)]
 Deg. of freedom    90
 Full point group                 C1      NOp   1
 Largest Abelian subgroup         C1      NOp   1
 Largest concise Abelian subgroup C1      NOp   1
                         Standard orientation:                         
 ---------------------------------------------------------------------
 Center     Atomic      Atomic             Coordinates (Angstroms)
 Number     Number       Type             X           Y           Z
 ---------------------------------------------------------------------
      1          6           0       -0.784969    2.946932    1.105781
      2          6           0        0.202776    2.108276    0.305830
      3          8           0        1.354026    2.477715    0.141930
      4          7           0       -0.223283    0.870174   -0.180618
      5          6           0        0.719205    0.225207   -1.119370
      6          6           0        2.076687   -0.299302   -0.592107
      7          8           0        3.100201    0.138243   -1.102259
      8          7           0        2.103173   -1.374417    0.266513
      9          6           0        0.965731   -1.900598    0.996107
     10          6           0        3.391446   -1.966228    0.600663
     11          1           0       -0.199631    3.659918    1.686211
     12          1           0       -1.405863    2.349407    1.778669
     13          1           0       -1.448159    3.513897    0.443212
     14          1           0        0.190426   -0.616599   -1.576999
     15          1           0        1.008371    0.930861   -1.902338
     16          1           0        0.118693   -1.224902    0.923323
     17          1           0        0.673716   -2.896049    0.631650
     18          1           0        1.218389   -1.996929    2.059677
     19          1           0        3.354646   -3.052279    0.451369
     20          1           0        4.148997   -1.529530   -0.046885
     21          1           0        3.653825   -1.771277    1.648894
     22          6           0       -1.644143    0.678247   -0.521904
     23          1           0       -2.234863    1.498344   -0.117118
     24          1           0       -1.775267    0.709388   -1.611809
     25          6           0       -2.253075   -0.621042    0.004165
     26          1           0       -2.161392   -0.665013    1.102987
     27          1           0       -1.733402   -1.503000   -0.405201
     28          8           0       -3.608654   -0.617351   -0.391839
     29          6           0       -4.308127   -1.775178    0.018231
     30          1           0       -5.336447   -1.673273   -0.335075
     31          1           0       -3.872286   -2.689679   -0.413015
     32          1           0       -4.316754   -1.880325    1.114161
 ---------------------------------------------------------------------
 Rotational constants (GHZ):      0.8106667      0.4152302      0.3097544
 Standard basis: 6-31G(d,p) (6D, 7F)
 There are   300 symmetry adapted basis functions of A   symmetry.
 Integral buffers will be    131072 words long.
 Raffenetti 2 integral format.
 Two-electron integral symmetry is turned on.
   300 basis functions,   518 primitive gaussians,   300 cartesian basis functions
    55 alpha electrons       55 beta electrons
       nuclear repulsion energy       968.8647180368 Hartrees.
 NAtoms=   32 NActive=   32 NUniq=   32 SFac= 1.00D+00 NAtFMM=   60 NAOKFM=F Big=F
 One-electron integrals computed using PRISM.
 NBasis=   300 RedAO= T  NBF=   300
 NBsUse=   300 1.00D-06 NBFU=   300
 Initial guess read from the read-write file.
 B after Tr=     0.000000    0.000000    0.000000
         Rot=    1.000000    0.000000    0.000000    0.000000 Ang=   0.00 deg.
 Initial guess orbital symmetries:
       Occupied  (A) (A) (A) (A) (A) (A) (A) (A) (A) (A) (A) (A)
                 (A) (A) (A) (A) (A) (A) (A) (A) (A) (A) (A) (A)
                 (A) (A) (A) (A) (A) (A) (A) (A) (A) (A) (A) (A)
                 (A) (A) (A) (A) (A) (A) (A) (A) (A) (A) (A) (A)
                 (A) (A) (A) (A) (A) (A) (A)
       Virtual   (A) (A) (A) (A) (A) (A) (A) (A) (A) (A) (A) (A)
                 (A) (A) (A) (A) (A) (A) (A) (A) (A) (A) (A) (A)
                 (A) (A) (A) (A) (A) (A) (A) (A) (A) (A) (A) (A)
                 (A) (A) (A) (A) (A) (A) (A) (A) (A) (A) (A) (A)
                 (A) (A) (A) (A) (A) (A) (A) (A) (A) (A) (A) (A)
                 (A) (A) (A) (A) (A) (A) (A) (A) (A) (A) (A) (A)
                 (A) (A) (A) (A) (A) (A) (A) (A) (A) (A) (A) (A)
                 (A) (A) (A) (A) (A) (A) (A) (A) (A) (A) (A) (A)
                 (A) (A) (A) (A) (A) (A) (A) (A) (A) (A) (A) (A)
                 (A) (A) (A) (A) (A) (A) (A) (A) (A) (A) (A) (A)
                 (A) (A) (A) (A) (A) (A) (A) (A) (A) (A) (A) (A)
                 (A) (A) (A) (A) (A) (A) (A) (A) (A) (A) (A) (A)
                 (A) (A) (A) (A) (A) (A) (A) (A) (A) (A) (A) (A)
                 (A) (A) (A) (A) (A) (A) (A) (A) (A) (A) (A) (A)
                 (A) (A) (A) (A) (A) (A) (A) (A) (A) (A) (A) (A)
                 (A) (A) (A) (A) (A) (A) (A) (A) (A) (A) (A) (A)
                 (A) (A) (A) (A) (A) (A) (A) (A) (A) (A) (A) (A)
                 (A) (A) (A) (A) (A) (A) (A) (A) (A) (A) (A) (A)
                 (A) (A) (A) (A) (A) (A) (A) (A) (A) (A) (A) (A)
                 (A) (A) (A) (A) (A) (A) (A) (A) (A) (A) (A) (A)
                 (A) (A) (A) (A) (A)
 Harris functional with IExCor=  402 diagonalized for initial guess.
 ExpMin= 1.61D-01 ExpMax= 5.48D+03 ExpMxC= 8.25D+02 IAcc=1 IRadAn=         1 AccDes= 0.00D+00
 HarFok:  IExCor=  402 AccDes= 0.00D+00 IRadAn=         1 IDoV= 1
 ScaDFX=  1.000000  1.000000  1.000000  1.000000
 FoFCou: FMM=F IPFlag=           0 FMFlag=      100000 FMFlg1=           0
         NFxFlg=           0 DoJE=T BraDBF=F KetDBF=T FulRan=T
         Omega=  0.000000  0.000000  1.000000  0.000000  0.000000 ICntrl=     500 IOpCl=  0
         NMat0=    1 NMatS0=    1 NMatT0=    0 NMatD0=    1 NMtDS0=    0 NMtDT0=    0
         I1Cent=           4 NGrid=           0.
 Petite list used in FoFCou.
 Requested convergence on RMS density matrix=1.00D-08 within 128 cycles.
 Requested convergence on MAX density matrix=1.00D-06.
 Requested convergence on             energy=1.00D-06.
 No special actions if energy rises.
 Keep R1 ints in memory in canonical form, NReq=1033483879.
 Integral accuracy reduced to 1.0D-05 until final iterations.
