 Entering Gaussian System, Link 0=/data/opt/apps/g09-C01/g09
 Initial command:
 /data/opt/apps/g09-C01/l1.exe /tmp/g09-tuu61186-3073243c21e64fea8x/Gau-3073379.inp -scrdir=/tmp/g09-tuu61186-3073243c21e64fea8x/
 Entering Link 1 = /data/opt/apps/g09-C01/l1.exe PID=   3073385.
  
 Copyright (c) 1988,1990,1992,1993,1995,1998,2003,2009,2011,
            Gaussian, Inc.  All Rights Reserved.
  
 This is part of the Gaussian(R) 09 program.  It is based on
 the Gaussian(R) 03 system (copyright 2003, Gaussian, Inc.),
 the Gaussian(R) 98 system (copyright 1998, Gaussian, Inc.),
 the Gaussian(R) 94 system (copyright 1995, Gaussian, Inc.),
 the Gaussian 92(TM) system (copyright 1992, Gaussian, Inc.),
 the Gaussian 90(TM) system (copyright 1990, Gaussian, Inc.),
 the Gaussian 88(TM) system (copyright 1988, Gaussian, Inc.),
 the Gaussian 86(TM) system (copyright 1986, Carnegie Mellon
 University), and the Gaussian 82(TM) system (copyright 1983,
 Carnegie Mellon University). Gaussian is a federally registered
 trademark of Gaussian, Inc.
  
 This software contains proprietary and confidential information,
 including trade secrets, belonging to Gaussian, Inc.
  
 This software is provided under written license and may be
 used, copied, transmitted, or stored only in accord with that
 written license.
  
 The following legend is applicable only to US Government
 contracts under FAR:
  
                    RESTRICTED RIGHTS LEGEND
  
 Use, reproduction and disclosure by the US Government is
 subject to restrictions as set forth in subparagraphs (a)
 and (c) of the Commercial Computer Software - Restricted
 Rights clause in FAR 52.227-19.
  
 Gaussian, Inc.
 340 Quinnipiac St., Bldg. 40, Wallingford CT 06492
  
  
 ---------------------------------------------------------------
 Warning -- This program may not be used in any manner that
 competes with the business of Gaussian, Inc. or will provide
 assistance to any competitor of Gaussian, Inc.  The licensee
 of this program is prohibited from giving any competitor of
 Gaussian, Inc. access to this program.  By using this program,
 the user acknowledges that Gaussian, Inc. is engaged in the
 business of creating and licensing software in the field of
 computational chemistry and represents and warrants to the
 licensee that it is not a competitor of Gaussian, Inc. and that
 it will not use this program in any manner prohibited above.
 ---------------------------------------------------------------
  

 Cite this work as:
 Gaussian 09, Revision C.01,
 M. J. Frisch, G. W. Trucks, H. B. Schlegel, G. E. Scuseria, 
 M. A. Robb, J. R. Cheeseman, G. Scalmani, V. Barone, B. Mennucci, 
 G. A. Petersson, H. Nakatsuji, M. Caricato, X. Li, H. P. Hratchian, 
 A. F. Izmaylov, J. Bloino, G. Zheng, J. L. Sonnenberg, M. Hada, 
 M. Ehara, K. Toyota, R. Fukuda, J. Hasegawa, M. Ishida, T. Nakajima, 
 Y. Honda, O. Kitao, H. Nakai, T. Vreven, J. A. Montgomery, Jr., 
 J. E. Peralta, F. Ogliaro, M. Bearpark, J. J. Heyd, E. Brothers, 
 K. N. Kudin, V. N. Staroverov, T. Keith, R. Kobayashi, J. Normand, 
 K. Raghavachari, A. Rendell, J. C. Burant, S. S. Iyengar, J. Tomasi, 
 M. Cossi, N. Rega, J. M. Millam, M. Klene, J. E. Knox, J. B. Cross, 
 V. Bakken, C. Adamo, J. Jaramillo, R. Gomperts, R. E. Stratmann, 
 O. Yazyev, A. J. Austin, R. Cammi, C. Pomelli, J. W. Ochterski, 
 R. L. Martin, K. Morokuma, V. G. Zakrzewski, G. A. Voth, 
 P. Salvador, J. J. Dannenberg, S. Dapprich, A. D. Daniels, 
 O. Farkas, J. B. Foresman, J. V. Ortiz, J. Cioslowski, 
 and D. J. Fox, Gaussian, Inc., Wallingford CT, 2010.
 
 ******************************************
 Gaussian 09:  EM64L-G09RevC.01 23-Sep-2011
                24-Apr-2026 
 ******************************************
 %nprocshared=8
 Will use up to    8 processors via shared memory.
 %mem=14GB
 -----------------------------------
 # opt=modredundant b3lyp/6-31g(d,p)
 -----------------------------------
 1/14=-1,18=120,19=15,26=3,38=1/1,3;
 2/9=110,12=2,17=6,18=5,40=1/2;
 3/5=1,6=6,7=101,11=2,16=1,25=1,30=1,71=1,74=-5/1,2,3;
 4//1;
 5/5=2,38=5/2;
 6/7=2,8=2,9=2,10=2,28=1/1;
 7//1,2,3,16;
 1/14=-1,18=20,19=15/3(2);
 2/9=110/2;
 99//99;
 2/9=110/2;
 3/5=1,6=6,7=101,11=2,16=1,25=1,30=1,71=1,74=-5/1,2,3;
 4/5=5,16=3/1;
 5/5=2,38=5/2;
 7//1,2,3,16;
 1/14=-1,18=20,19=15/3(-5);
 2/9=110/2;
 6/7=2,8=2,9=2,10=2,19=2,28=1/1;
 99/9=1/99;
 ---------------
 QM dihedral opt
 ---------------
 Charge =  0 Multiplicity = 1
 Symbolic Z-Matrix:
 C                     2.05057   2.65623   0.57136 
 C                     0.77582   2.17431  -0.10544 
 O                     0.06345   2.95659  -0.7288 
 N                     0.44297   0.84208   0.04099 
 C                    -0.77688   0.38556  -0.60103 
 C                    -1.78089  -0.21534   0.40045 
 O                    -1.52087  -0.28661   1.59739 
 N                    -2.96257  -0.68197  -0.12056 
 C                    -3.37795  -0.57379  -1.5094 
 C                    -3.93712  -1.2886    0.77577 
 H                     2.17895   3.70528   0.30767 
 H                     2.9348    2.09517   0.25572 
 H                     1.97213   2.57006   1.6601 
 H                    -1.20205   1.25968  -1.09973 
 H                    -0.5481   -0.36161  -1.37355 
 H                    -2.63312  -0.06218  -2.11483 
 H                    -3.54805  -1.56879  -1.94162 
 H                    -4.31721  -0.0106   -1.58398 
 H                    -4.18574  -2.30251   0.43857 
 H                    -3.508    -1.32886   1.77506 
 H                    -4.86131  -0.69735   0.79992 
 C                     1.32628  -0.15641   0.63995 
 H                     1.91771   0.29771   1.436 
 H                     0.70886  -0.91939   1.11489 
 C                     2.26786  -0.80687  -0.3782 
 H                     2.92206  -0.04895  -0.84268 
 H                     1.69117  -1.27438  -1.19512 
 O                     3.02963  -1.77417   0.31372 
 C                     3.94418  -2.45717  -0.51771 
 H                     4.47775  -3.1759    0.1084 
 H                     3.43335  -3.00154  -1.32757 
 H                     4.67515  -1.77071  -0.9733 
 
 The following ModRedundant input section has been read:
 D       2       4       5       6 F                                           
 D       4       5       6       8 S  36 10.000                                

 GradGradGradGradGradGradGradGradGradGradGradGradGradGradGradGradGradGrad
 Berny optimization.
 Initialization pass.
                           ----------------------------
                           !    Initial Parameters    !
                           ! (Angstroms and Degrees)  !
 --------------------------                            --------------------------
 ! Name  Definition              Value          Derivative Info.                !
 --------------------------------------------------------------------------------
 ! R1    R(1,2)                  1.5216         estimate D2E/DX2                !
 ! R2    R(1,11)                 1.0893         estimate D2E/DX2                !
 ! R3    R(1,12)                 1.0938         estimate D2E/DX2                !
 ! R4    R(1,13)                 1.095          estimate D2E/DX2                !
 ! R5    R(2,3)                  1.228          estimate D2E/DX2                !
 ! R6    R(2,4)                  1.381          estimate D2E/DX2                !
 ! R7    R(4,5)                  1.4521         estimate D2E/DX2                !
 ! R8    R(4,22)                 1.4615         estimate D2E/DX2                !
 ! R9    R(5,6)                  1.5402         estimate D2E/DX2                !
 ! R10   R(5,14)                 1.0925         estimate D2E/DX2                !
 ! R11   R(5,15)                 1.0988         estimate D2E/DX2                !
 ! R12   R(6,7)                  1.2269         estimate D2E/DX2                !
 ! R13   R(6,8)                  1.3732         estimate D2E/DX2                !
 ! R14   R(8,9)                  1.4537         estimate D2E/DX2                !
 ! R15   R(8,10)                 1.4564         estimate D2E/DX2                !
 ! R16   R(9,16)                 1.0877         estimate D2E/DX2                !
 ! R17   R(9,17)                 1.0981         estimate D2E/DX2                !
 ! R18   R(9,18)                 1.0977         estimate D2E/DX2                !
 ! R19   R(10,19)                1.0971         estimate D2E/DX2                !
 ! R20   R(10,20)                1.0883         estimate D2E/DX2                !
 ! R21   R(10,21)                1.0974         estimate D2E/DX2                !
 ! R22   R(22,23)                1.0907         estimate D2E/DX2                !
 ! R23   R(22,24)                1.0904         estimate D2E/DX2                !
 ! R24   R(22,25)                1.5318         estimate D2E/DX2                !
 ! R25   R(25,26)                1.1037         estimate D2E/DX2                !
 ! R26   R(25,27)                1.1039         estimate D2E/DX2                !
 ! R27   R(25,28)                1.4123         estimate D2E/DX2                !
 ! R28   R(28,29)                1.4121         estimate D2E/DX2                !
 ! R29   R(29,30)                1.0924         estimate D2E/DX2                !
 ! R30   R(29,31)                1.1014         estimate D2E/DX2                !
 ! R31   R(29,32)                1.1014         estimate D2E/DX2                !
 ! A1    A(2,1,11)             107.2226         estimate D2E/DX2                !
 ! A2    A(2,1,12)             112.7345         estimate D2E/DX2                !
 ! A3    A(2,1,13)             110.9359         estimate D2E/DX2                !
 ! A4    A(11,1,12)            109.2007         estimate D2E/DX2                !
 ! A5    A(11,1,13)            108.9622         estimate D2E/DX2                !
 ! A6    A(12,1,13)            107.7276         estimate D2E/DX2                !
 ! A7    A(1,2,3)              120.6651         estimate D2E/DX2                !
 ! A8    A(1,2,4)              117.4065         estimate D2E/DX2                !
 ! A9    A(3,2,4)              121.9074         estimate D2E/DX2                !
 ! A10   A(2,4,5)              117.3153         estimate D2E/DX2                !
 ! A11   A(2,4,22)             123.8394         estimate D2E/DX2                !
 ! A12   A(5,4,22)             118.3024         estimate D2E/DX2                !
 ! A13   A(4,5,6)              112.5061         estimate D2E/DX2                !
 ! A14   A(4,5,14)             106.0931         estimate D2E/DX2                !
 ! A15   A(4,5,15)             110.4694         estimate D2E/DX2                !
 ! A16   A(6,5,14)             110.8113         estimate D2E/DX2                !
 ! A17   A(6,5,15)             109.1222         estimate D2E/DX2                !
 ! A18   A(14,5,15)            107.7083         estimate D2E/DX2                !
 ! A19   A(5,6,7)              121.2562         estimate D2E/DX2                !
 ! A20   A(5,6,8)              116.5417         estimate D2E/DX2                !
 ! A21   A(7,6,8)              122.1939         estimate D2E/DX2                !
 ! A22   A(6,8,9)              125.6703         estimate D2E/DX2                !
 ! A23   A(6,8,10)             118.9385         estimate D2E/DX2                !
 ! A24   A(9,8,10)             115.3268         estimate D2E/DX2                !
 ! A25   A(8,9,16)             111.7852         estimate D2E/DX2                !
 ! A26   A(8,9,17)             110.6647         estimate D2E/DX2                !
 ! A27   A(8,9,18)             110.3407         estimate D2E/DX2                !
 ! A28   A(16,9,17)            108.2512         estimate D2E/DX2                !
 ! A29   A(16,9,18)            107.8661         estimate D2E/DX2                !
 ! A30   A(17,9,18)            107.7954         estimate D2E/DX2                !
 ! A31   A(8,10,19)            110.3309         estimate D2E/DX2                !
 ! A32   A(8,10,20)            108.4614         estimate D2E/DX2                !
 ! A33   A(8,10,21)            110.6497         estimate D2E/DX2                !
 ! A34   A(19,10,20)           109.7188         estimate D2E/DX2                !
 ! A35   A(19,10,21)           108.2914         estimate D2E/DX2                !
 ! A36   A(20,10,21)           109.3782         estimate D2E/DX2                !
 ! A37   A(4,22,23)            110.0217         estimate D2E/DX2                !
 ! A38   A(4,22,24)            108.3215         estimate D2E/DX2                !
 ! A39   A(4,22,25)            112.9063         estimate D2E/DX2                !
 ! A40   A(23,22,24)           106.2885         estimate D2E/DX2                !
 ! A41   A(23,22,25)           109.1835         estimate D2E/DX2                !
 ! A42   A(24,22,25)           109.9043         estimate D2E/DX2                !
 ! A43   A(22,25,26)           110.639          estimate D2E/DX2                !
 ! A44   A(22,25,27)           110.525          estimate D2E/DX2                !
 ! A45   A(22,25,28)           107.2625         estimate D2E/DX2                !
 ! A46   A(26,25,27)           106.8013         estimate D2E/DX2                !
 ! A47   A(26,25,28)           110.9032         estimate D2E/DX2                !
 ! A48   A(27,25,28)           110.7489         estimate D2E/DX2                !
 ! A49   A(25,28,29)           113.0868         estimate D2E/DX2                !
 ! A50   A(28,29,30)           107.2839         estimate D2E/DX2                !
 ! A51   A(28,29,31)           111.8137         estimate D2E/DX2                !
 ! A52   A(28,29,32)           111.8334         estimate D2E/DX2                !
 ! A53   A(30,29,31)           108.8315         estimate D2E/DX2                !
 ! A54   A(30,29,32)           108.8433         estimate D2E/DX2                !
 ! A55   A(31,29,32)           108.1611         estimate D2E/DX2                !
 ! D1    D(11,1,2,3)            -4.5335         estimate D2E/DX2                !
 ! D2    D(11,1,2,4)           177.0996         estimate D2E/DX2                !
 ! D3    D(12,1,2,3)          -124.7462         estimate D2E/DX2                !
 ! D4    D(12,1,2,4)            56.8869         estimate D2E/DX2                !
 ! D5    D(13,1,2,3)           114.3375         estimate D2E/DX2                !
 ! D6    D(13,1,2,4)           -64.0294         estimate D2E/DX2                !
 ! D7    D(1,2,4,5)            179.7485         estimate D2E/DX2                !
 ! D8    D(1,2,4,22)            -8.8643         estimate D2E/DX2                !
 ! D9    D(3,2,4,5)              1.4033         estimate D2E/DX2                !
 ! D10   D(3,2,4,22)           172.7905         estimate D2E/DX2                !
 ! D11   D(2,4,5,6)           -121.3299         Frozen                          !
 ! D12   D(2,4,5,14)            -0.0106         estimate D2E/DX2                !
 ! D13   D(2,4,5,15)           116.4515         estimate D2E/DX2                !
 ! D14   D(22,4,5,6)            66.7918         estimate D2E/DX2                !
 ! D15   D(22,4,5,14)         -171.8889         estimate D2E/DX2                !
 ! D16   D(22,4,5,15)          -55.4268         estimate D2E/DX2                !
 ! D17   D(2,4,22,23)           34.179          estimate D2E/DX2                !
 ! D18   D(2,4,22,24)          149.972          estimate D2E/DX2                !
 ! D19   D(2,4,22,25)          -88.0731         estimate D2E/DX2                !
 ! D20   D(5,4,22,23)         -154.513          estimate D2E/DX2                !
 ! D21   D(5,4,22,24)          -38.72           estimate D2E/DX2                !
 ! D22   D(5,4,22,25)           83.2349         estimate D2E/DX2                !
 ! D23   D(4,5,6,7)             -0.6203         estimate D2E/DX2                !
 ! D24   D(4,5,6,8)           -179.5984         Scan                            !
 ! D25   D(14,5,6,7)          -119.2066         estimate D2E/DX2                !
 ! D26   D(14,5,6,8)            61.8153         estimate D2E/DX2                !
 ! D27   D(15,5,6,7)           122.3566         estimate D2E/DX2                !
 ! D28   D(15,5,6,8)           -56.6215         estimate D2E/DX2                !
 ! D29   D(5,6,8,9)             -4.4473         estimate D2E/DX2                !
 ! D30   D(5,6,8,10)           178.6174         estimate D2E/DX2                !
 ! D31   D(7,6,8,9)            176.5849         estimate D2E/DX2                !
 ! D32   D(7,6,8,10)            -0.3504         estimate D2E/DX2                !
 ! D33   D(6,8,9,16)            -0.3319         estimate D2E/DX2                !
 ! D34   D(6,8,9,17)           120.4122         estimate D2E/DX2                !
 ! D35   D(6,8,9,18)          -120.3668         estimate D2E/DX2                !
 ! D36   D(10,8,9,16)          176.7009         estimate D2E/DX2                !
 ! D37   D(10,8,9,17)          -62.555          estimate D2E/DX2                !
 ! D38   D(10,8,9,18)           56.666          estimate D2E/DX2                !
 ! D39   D(6,8,10,19)         -123.8913         estimate D2E/DX2                !
 ! D40   D(6,8,10,20)           -3.69           estimate D2E/DX2                !
 ! D41   D(6,8,10,21)          116.2859         estimate D2E/DX2                !
 ! D42   D(9,8,10,19)           58.8629         estimate D2E/DX2                !
 ! D43   D(9,8,10,20)          179.0643         estimate D2E/DX2                !
 ! D44   D(9,8,10,21)          -60.9599         estimate D2E/DX2                !
 ! D45   D(4,22,25,26)          60.7976         estimate D2E/DX2                !
 ! D46   D(4,22,25,27)         -57.2904         estimate D2E/DX2                !
 ! D47   D(4,22,25,28)        -178.1189         estimate D2E/DX2                !
 ! D48   D(23,22,25,26)        -61.9234         estimate D2E/DX2                !
 ! D49   D(23,22,25,27)        179.9886         estimate D2E/DX2                !
 ! D50   D(23,22,25,28)         59.1601         estimate D2E/DX2                !
 ! D51   D(24,22,25,26)       -178.1424         estimate D2E/DX2                !
 ! D52   D(24,22,25,27)         63.7696         estimate D2E/DX2                !
 ! D53   D(24,22,25,28)        -57.0589         estimate D2E/DX2                !
 ! D54   D(22,25,28,29)        179.8358         estimate D2E/DX2                !
 ! D55   D(26,25,28,29)        -59.2473         estimate D2E/DX2                !
 ! D56   D(27,25,28,29)         59.1491         estimate D2E/DX2                !
 ! D57   D(25,28,29,30)       -179.9819         estimate D2E/DX2                !
 ! D58   D(25,28,29,31)        -60.7291         estimate D2E/DX2                !
 ! D59   D(25,28,29,32)         60.7395         estimate D2E/DX2                !
 --------------------------------------------------------------------------------
 Trust Radius=3.00D-01 FncErr=1.00D-07 GrdErr=1.00D-06
 Number of optimizations in scan=  37
 Number of steps in this run=    155 maximum allowed number of steps=    192.
 GradGradGradGradGradGradGradGradGradGradGradGradGradGradGradGradGradGrad

                          Input orientation:                          
 ---------------------------------------------------------------------
 Center     Atomic      Atomic             Coordinates (Angstroms)
 Number     Number       Type             X           Y           Z
 ---------------------------------------------------------------------
      1          6           0        2.050566    2.656229    0.571361
      2          6           0        0.775817    2.174315   -0.105435
      3          8           0        0.063454    2.956585   -0.728803
      4          7           0        0.442967    0.842084    0.040989
      5          6           0       -0.776883    0.385560   -0.601033
      6          6           0       -1.780887   -0.215339    0.400451
      7          8           0       -1.520865   -0.286610    1.597390
      8          7           0       -2.962572   -0.681965   -0.120557
      9          6           0       -3.377954   -0.573788   -1.509396
     10          6           0       -3.937119   -1.288603    0.775768
     11          1           0        2.178952    3.705280    0.307668
     12          1           0        2.934802    2.095168    0.255719
     13          1           0        1.972125    2.570055    1.660100
     14          1           0       -1.202054    1.259683   -1.099728
     15          1           0       -0.548101   -0.361611   -1.373545
     16          1           0       -2.633118   -0.062180   -2.114828
     17          1           0       -3.548045   -1.568790   -1.941621
     18          1           0       -4.317205   -0.010596   -1.583981
     19          1           0       -4.185739   -2.302513    0.438572
     20          1           0       -3.507998   -1.328862    1.775055
     21          1           0       -4.861305   -0.697354    0.799916
     22          6           0        1.326276   -0.156407    0.639954
     23          1           0        1.917705    0.297713    1.436000
     24          1           0        0.708863   -0.919391    1.114892
     25          6           0        2.267863   -0.806865   -0.378198
     26          1           0        2.922062   -0.048954   -0.842675
     27          1           0        1.691168   -1.274377   -1.195124
     28          8           0        3.029629   -1.774169    0.313717
     29          6           0        3.944177   -2.457169   -0.517705
     30          1           0        4.477751   -3.175897    0.108400
     31          1           0        3.433347   -3.001541   -1.327570
     32          1           0        4.675151   -1.770713   -0.973297
 ---------------------------------------------------------------------
                    Distance matrix (angstroms):
                    1          2          3          4          5
     1  C    0.000000
     2  C    1.521604   0.000000
     3  O    2.393586   1.228005   0.000000
     4  N    2.481288   1.380967   2.282044   0.000000
     5  C    3.811156   2.419946   2.707889   1.452116   0.000000
     6  C    4.791153   3.535973   3.838999   2.488550   1.540154
     7  O    4.740059   3.772335   4.294130   2.748267   2.416275
     8  N    6.062495   4.704691   4.771356   3.734504   2.479456
     9  C    6.650668   5.174649   4.991608   4.359796   2.917369
    10  C    7.173274   5.914396   6.024113   4.925940   3.832166
    11  H    1.089277   2.117379   2.471871   3.358966   4.536875
    12  H    1.093752   2.190414   3.155307   2.797422   4.175331
    13  H    1.094957   2.169073   3.082091   2.818817   4.176336
    14  H    3.914386   2.395234   2.149086   2.044925   1.092501
    15  H    4.432052   3.129182   3.435130   2.105232   1.098809
    16  H    6.045019   4.545372   4.278494   3.863617   2.436730
    17  H    7.450524   6.006513   5.915477   5.066679   3.646368
    18  H    7.232286   5.735748   5.359633   5.101650   3.695539
    19  H    7.968579   6.704847   6.861233   5.609945   4.463946
    20  H    6.944600   5.844618   6.114706   4.830126   4.005499
    21  H    7.685878   6.390875   6.319929   5.575046   4.451726
    22  C    2.905206   2.508162   3.627525   1.461499   2.501411
    23  H    2.515522   2.683573   3.897976   2.101725   3.379057
    24  H    3.857545   3.326364   4.340386   2.080087   2.618155
    25  C    3.597485   3.344852   4.375603   2.494994   3.277501
    26  H    3.174432   3.176919   4.149442   2.778619   3.732209
    27  H    4.324269   3.730786   4.557186   2.750525   3.033086
    28  O    4.544598   4.565729   5.680236   3.689171   4.471099
    29  C    5.560456   5.626643   6.664331   4.843107   5.511484
    30  H    6.333976   6.509594   7.602254   5.694576   6.387366
    31  H    6.126041   5.945214   6.871242   5.058535   5.452187
    32  H    5.373289   5.614378   6.608697   5.076107   5.874757
                    6          7          8          9         10
     6  C    0.000000
     7  O    1.226929   0.000000
     8  N    1.373160   2.277316   0.000000
     9  C    2.515278   3.630891   1.453657   0.000000
    10  C    2.437641   2.741776   1.456417   2.458780   0.000000
    11  H    5.573167   5.593498   6.772486   7.245091   7.909760
    12  H    5.253295   5.227420   6.529401   7.077418   7.677477
    13  H    4.840479   4.512809   6.172326   6.967984   7.112696
    14  H    2.182035   3.125237   2.797891   2.874715   4.182323
    15  H    2.165229   3.127035   2.739028   2.841046   4.118775
    16  H    2.660147   3.881757   2.114188   1.087691   3.400011
    17  H    3.231096   4.275283   2.108438   1.098079   2.759363
    18  H    3.226887   4.244623   2.104133   1.097698   2.710384
    19  H    3.184503   3.536704   2.105929   2.726827   1.097054
    20  H    2.472323   2.250900   2.075888   3.372635   1.088274
    21  H    3.143388   3.458788   2.110141   2.747457   1.097396
    22  C    3.116937   3.006634   4.387346   5.188805   5.385503
    23  H    3.874941   3.491596   5.215337   6.121999   6.101743
    24  H    2.684208   2.367468   3.880997   4.869127   4.672951
    25  C    4.165162   4.304425   5.238266   5.762741   6.329732
    26  H    4.867317   5.074446   5.962472   6.356899   7.155729
    27  H    3.965172   4.369322   4.812789   5.126947   5.963408
    28  O    5.057523   4.956576   6.106388   6.769178   6.998917
    29  C    6.216524   6.249131   7.142287   7.625233   8.071768
    30  H    6.929700   6.822644   7.850511   8.432102   8.649699
    31  H    6.159319   6.361640   6.909782   7.233316   7.853786
    32  H    6.781357   6.870343   7.761917   8.159199   8.801298
                   11         12         13         14         15
    11  H    0.000000
    12  H    1.779457   0.000000
    13  H    1.777804   1.767640   0.000000
    14  H    4.403738   4.432702   4.405580   0.000000
    15  H    5.177151   4.562990   4.914184   1.769527   0.000000
    16  H    6.574060   6.424592   6.510530   2.196746   2.233037
    17  H    8.103926   7.764032   7.782976   3.769976   3.283239
    18  H    7.719205   7.772409   7.532562   3.398864   3.791258
    19  H    8.753285   8.371089   7.946907   4.894689   4.503696
    20  H    7.735452   7.452653   6.726553   4.503590   4.428346
    21  H    8.318096   8.299013   7.623099   4.563854   4.841527
    22  C    3.968639   2.793668   2.981847   3.379979   2.758546
    23  H    3.599013   2.378738   2.284014   4.133787   3.795846
    24  H    4.919386   3.844548   3.750909   3.647535   2.843131
    25  C    4.564841   3.044414   3.955466   4.102627   3.019705
    26  H    3.996220   2.409127   3.745060   4.334390   3.524430
    27  H    5.224299   3.873681   4.796968   3.847245   2.424727
    28  O    5.545092   3.870933   4.669405   5.395297   4.200277
    29  C    6.463206   4.726605   5.822783   6.374750   5.030347
    30  H    7.257739   5.494226   6.457701   7.307129   5.947735
    31  H    7.016335   5.360205   6.488761   6.300546   4.777371
    32  H    6.152916   4.414106   5.751817   6.613685   5.424770
                   16         17         18         19         20
    16  H    0.000000
    17  H    1.771148   0.000000
    18  H    1.766524   1.774114   0.000000
    19  H    3.734913   2.571055   3.059557   0.000000
    20  H    4.183430   3.724627   3.698076   1.787041   0.000000
    21  H    3.723439   3.162290   2.539812   1.778621   1.783575
    22  C    4.824366   5.693712   6.067621   5.918499   5.102285
    23  H    5.783415   6.690783   6.934655   6.708805   5.674413
    24  H    4.725964   5.280649   5.776780   5.131039   4.287820
    25  C    5.252624   6.070388   6.741741   6.674807   6.186239
    26  H    5.698998   6.736458   7.277224   7.565775   7.059486
    27  H    4.584182   5.300310   6.152146   6.185795   5.988010
    28  O    6.394954   6.956617   7.790213   7.235763   6.713745
    29  C    7.179665   7.677900   8.681768   8.187424   7.878118
    30  H    8.074802   8.437937   9.499186   8.713660   8.364297
    31  H    6.786871   7.153298   8.311592   7.852284   7.785012
    32  H    7.591638   8.282474   9.183323   8.988412   8.643645
                   21         22         23         24         25
    21  H    0.000000
    22  C    6.213242   0.000000
    23  H    6.881115   1.090735   0.000000
    24  H    5.583483   1.090371   1.745208   0.000000
    25  C    7.226685   1.531769   2.152677   2.161588   0.000000
    26  H    7.981186   2.180887   2.514214   3.080256   1.103696
    27  H    6.873721   2.179567   3.073369   2.535175   1.103863
    28  O    7.978895   2.371707   2.605492   2.599708   1.412342
    29  C    9.075769   3.672477   3.938645   3.936673   2.356479
    30  H    9.687071   4.396779   4.514679   4.506591   3.276079
    31  H    8.867735   4.050393   4.562846   4.209962   2.660125
    32  H    9.759118   4.052595   4.205545   4.562535   2.660485
                   26         27         28         29         30
    26  H    0.000000
    27  H    1.772282   0.000000
    28  O    2.079707   2.077949   0.000000
    29  C    2.636252   2.633238   1.412144   0.000000
    30  H    3.619735   3.616628   2.025846   1.092373   0.000000
    31  H    3.035507   2.456792   2.088840   1.101440   1.784150
    32  H    2.460658   3.033103   2.089057   1.101412   1.784258
                   31         32
    31  H    0.000000
    32  H    1.783963   0.000000
 Stoichiometry    C9H18N2O3
 Framework group  C1[X(C9H18N2O3)]
 Deg. of freedom    90
 Full point group                 C1      NOp   1
 Largest Abelian subgroup         C1      NOp   1
 Largest concise Abelian subgroup C1      NOp   1
                         Standard orientation:                         
 ---------------------------------------------------------------------
 Center     Atomic      Atomic             Coordinates (Angstroms)
 Number     Number       Type             X           Y           Z
 ---------------------------------------------------------------------
      1          6           0       -2.050566    2.656229   -0.571361
      2          6           0       -0.775817    2.174315    0.105435
      3          8           0       -0.063454    2.956585    0.728803
      4          7           0       -0.442967    0.842084   -0.040989
      5          6           0        0.776883    0.385560    0.601033
      6          6           0        1.780887   -0.215339   -0.400451
      7          8           0        1.520865   -0.286610   -1.597390
      8          7           0        2.962572   -0.681965    0.120557
      9          6           0        3.377954   -0.573788    1.509396
     10          6           0        3.937119   -1.288603   -0.775768
     11          1           0       -2.178952    3.705280   -0.307668
     12          1           0       -2.934802    2.095168   -0.255719
     13          1           0       -1.972125    2.570055   -1.660100
     14          1           0        1.202054    1.259683    1.099728
     15          1           0        0.548101   -0.361611    1.373545
     16          1           0        2.633118   -0.062180    2.114828
     17          1           0        3.548045   -1.568790    1.941621
     18          1           0        4.317205   -0.010596    1.583981
     19          1           0        4.185739   -2.302513   -0.438572
     20          1           0        3.507998   -1.328862   -1.775055
     21          1           0        4.861305   -0.697354   -0.799916
     22          6           0       -1.326276   -0.156407   -0.639954
     23          1           0       -1.917705    0.297713   -1.436000
     24          1           0       -0.708863   -0.919391   -1.114892
     25          6           0       -2.267863   -0.806865    0.378198
     26          1           0       -2.922062   -0.048954    0.842675
     27          1           0       -1.691168   -1.274377    1.195124
     28          8           0       -3.029629   -1.774169   -0.313717
     29          6           0       -3.944177   -2.457169    0.517705
     30          1           0       -4.477751   -3.175897   -0.108400
     31          1           0       -3.433347   -3.001541    1.327570
     32          1           0       -4.675151   -1.770713    0.973297
 ---------------------------------------------------------------------
 Rotational constants (GHZ):      0.7746394      0.3826189      0.2965570
 Standard basis: 6-31G(d,p) (6D, 7F)
 There are   300 symmetry adapted basis functions of A   symmetry.
 Integral buffers will be    131072 words long.
 Raffenetti 2 integral format.
 Two-electron integral symmetry is turned on.
   300 basis functions,   518 primitive gaussians,   300 cartesian basis functions
    55 alpha electrons       55 beta electrons
       nuclear repulsion energy       956.8500629428 Hartrees.
 NAtoms=   32 NActive=   32 NUniq=   32 SFac= 1.00D+00 NAtFMM=   60 NAOKFM=F Big=F
 One-electron integrals computed using PRISM.
 NBasis=   300 RedAO= T  NBF=   300
 NBsUse=   300 1.00D-06 NBFU=   300
 Harris functional with IExCor=  402 diagonalized for initial guess.
 ExpMin= 1.61D-01 ExpMax= 5.48D+03 ExpMxC= 8.25D+02 IAcc=1 IRadAn=         1 AccDes= 0.00D+00
 HarFok:  IExCor=  402 AccDes= 0.00D+00 IRadAn=         1 IDoV= 1
 ScaDFX=  1.000000  1.000000  1.000000  1.000000
 FoFCou: FMM=F IPFlag=           0 FMFlag=      100000 FMFlg1=           0
         NFxFlg=           0 DoJE=T BraDBF=F KetDBF=T FulRan=T
         Omega=  0.000000  0.000000  1.000000  0.000000  0.000000 ICntrl=     500 IOpCl=  0
         NMat0=    1 NMatS0=    1 NMatT0=    0 NMatD0=    1 NMtDS0=    0 NMtDT0=    0
         I1Cent=           4 NGrid=           0.
 Petite list used in FoFCou.
 Initial guess orbital symmetries:
       Occupied  (A) (A) (A) (A) (A) (A) (A) (A) (A) (A) (A) (A)
                 (A) (A) (A) (A) (A) (A) (A) (A) (A) (A) (A) (A)
                 (A) (A) (A) (A) (A) (A) (A) (A) (A) (A) (A) (A)
                 (A) (A) (A) (A) (A) (A) (A) (A) (A) (A) (A) (A)
                 (A) (A) (A) (A) (A) (A) (A)
       Virtual   (A) (A) (A) (A) (A) (A) (A) (A) (A) (A) (A) (A)
                 (A) (A) (A) (A) (A) (A) (A) (A) (A) (A) (A) (A)
                 (A) (A) (A) (A) (A) (A) (A) (A) (A) (A) (A) (A)
                 (A) (A) (A) (A) (A) (A) (A) (A) (A) (A) (A) (A)
                 (A) (A) (A) (A) (A) (A) (A) (A) (A) (A) (A) (A)
                 (A) (A) (A) (A) (A) (A) (A) (A) (A) (A) (A) (A)
                 (A) (A) (A) (A) (A) (A) (A) (A) (A) (A) (A) (A)
                 (A) (A) (A) (A) (A) (A) (A) (A) (A) (A) (A) (A)
                 (A) (A) (A) (A) (A) (A) (A) (A) (A) (A) (A) (A)
                 (A) (A) (A) (A) (A) (A) (A) (A) (A) (A) (A) (A)
                 (A) (A) (A) (A) (A) (A) (A) (A) (A) (A) (A) (A)
                 (A) (A) (A) (A) (A) (A) (A) (A) (A) (A) (A) (A)
                 (A) (A) (A) (A) (A) (A) (A) (A) (A) (A) (A) (A)
                 (A) (A) (A) (A) (A) (A) (A) (A) (A) (A) (A) (A)
                 (A) (A) (A) (A) (A) (A) (A) (A) (A) (A) (A) (A)
                 (A) (A) (A) (A) (A) (A) (A) (A) (A) (A) (A) (A)
                 (A) (A) (A) (A) (A) (A) (A) (A) (A) (A) (A) (A)
                 (A) (A) (A) (A) (A) (A) (A) (A) (A) (A) (A) (A)
                 (A) (A) (A) (A) (A) (A) (A) (A) (A) (A) (A) (A)
                 (A) (A) (A) (A) (A) (A) (A) (A) (A) (A) (A) (A)
                 (A) (A) (A) (A) (A)
 The electronic state of the initial guess is 1-A.
 Requested convergence on RMS density matrix=1.00D-08 within 128 cycles.
 Requested convergence on MAX density matrix=1.00D-06.
 Requested convergence on             energy=1.00D-06.
 No special actions if energy rises.
 Keep R1 ints in memory in canonical form, NReq=1033484936.
 Integral accuracy reduced to 1.0D-05 until final iterations.
 Initial convergence to 1.0D-05 achieved.  Increase integral accuracy.
 SCF Done:  E(RB3LYP) =  -688.996555061     A.U. after   14 cycles
             Convg  =    0.7003D-08             -V/T =  2.0093

 **********************************************************************

            Population analysis using the SCF density.

 **********************************************************************

 Orbital symmetries:
       Occupied  (A) (A) (A) (A) (A) (A) (A) (A) (A) (A) (A) (A)
                 (A) (A) (A) (A) (A) (A) (A) (A) (A) (A) (A) (A)
                 (A) (A) (A) (A) (A) (A) (A) (A) (A) (A) (A) (A)
                 (A) (A) (A) (A) (A) (A) (A) (A) (A) (A) (A) (A)
                 (A) (A) (A) (A) (A) (A) (A)
       Virtual   (A) (A) (A) (A) (A) (A) (A) (A) (A) (A) (A) (A)
                 (A) (A) (A) (A) (A) (A) (A) (A) (A) (A) (A) (A)
                 (A) (A) (A) (A) (A) (A) (A) (A) (A) (A) (A) (A)
                 (A) (A) (A) (A) (A) (A) (A) (A) (A) (A) (A) (A)
                 (A) (A) (A) (A) (A) (A) (A) (A) (A) (A) (A) (A)
                 (A) (A) (A) (A) (A) (A) (A) (A) (A) (A) (A) (A)
                 (A) (A) (A) (A) (A) (A) (A) (A) (A) (A) (A) (A)
                 (A) (A) (A) (A) (A) (A) (A) (A) (A) (A) (A) (A)
                 (A) (A) (A) (A) (A) (A) (A) (A) (A) (A) (A) (A)
                 (A) (A) (A) (A) (A) (A) (A) (A) (A) (A) (A) (A)
                 (A) (A) (A) (A) (A) (A) (A) (A) (A) (A) (A) (A)
                 (A) (A) (A) (A) (A) (A) (A) (A) (A) (A) (A) (A)
                 (A) (A) (A) (A) (A) (A) (A) (A) (A) (A) (A) (A)
                 (A) (A) (A) (A) (A) (A) (A) (A) (A) (A) (A) (A)
                 (A) (A) (A) (A) (A) (A) (A) (A) (A) (A) (A) (A)
                 (A) (A) (A) (A) (A) (A) (A) (A) (A) (A) (A) (A)
                 (A) (A) (A) (A) (A) (A) (A) (A) (A) (A) (A) (A)
                 (A) (A) (A) (A) (A) (A) (A) (A) (A) (A) (A) (A)
                 (A) (A) (A) (A) (A) (A) (A) (A) (A) (A) (A) (A)
                 (A) (A) (A) (A) (A) (A) (A) (A) (A) (A) (A) (A)
                 (A) (A) (A) (A) (A)
 The electronic state is 1-A.
 Alpha  occ. eigenvalues --  -19.15451 -19.11062 -19.10488 -14.36891 -14.36111
 Alpha  occ. eigenvalues --  -10.28666 -10.28182 -10.23754 -10.23267 -10.23134
 Alpha  occ. eigenvalues --  -10.22607 -10.21676 -10.21450 -10.18623  -1.03861
 Alpha  occ. eigenvalues --   -1.03406  -1.02365  -0.93534  -0.92827  -0.77114
 Alpha  occ. eigenvalues --   -0.75222  -0.73035  -0.71682  -0.68463  -0.66816
 Alpha  occ. eigenvalues --   -0.62343  -0.56272  -0.53324  -0.51122  -0.50232
 Alpha  occ. eigenvalues --   -0.49466  -0.48173  -0.47282  -0.47038  -0.46183
 Alpha  occ. eigenvalues --   -0.45134  -0.43341  -0.42513  -0.41585  -0.41011
 Alpha  occ. eigenvalues --   -0.40820  -0.40710  -0.39021  -0.38668  -0.38439
 Alpha  occ. eigenvalues --   -0.37535  -0.36010  -0.34973  -0.34884  -0.32489
 Alpha  occ. eigenvalues --   -0.26148  -0.25486  -0.24397  -0.24190  -0.23272
 Alpha virt. eigenvalues --    0.02656   0.03079   0.07385   0.08499   0.09367
 Alpha virt. eigenvalues --    0.10713   0.11721   0.13164   0.13516   0.14462
 Alpha virt. eigenvalues --    0.14612   0.15417   0.15768   0.16361   0.16468
 Alpha virt. eigenvalues --    0.16765   0.17471   0.18190   0.18647   0.19413
 Alpha virt. eigenvalues --    0.20375   0.21322   0.21975   0.22272   0.22961
 Alpha virt. eigenvalues --    0.23788   0.25771   0.28403   0.29032   0.34049
 Alpha virt. eigenvalues --    0.34448   0.38359   0.40274   0.48261   0.49242
 Alpha virt. eigenvalues --    0.49610   0.50179   0.51088   0.51452   0.52717
 Alpha virt. eigenvalues --    0.54313   0.55341   0.55853   0.56020   0.57719
 Alpha virt. eigenvalues --    0.59590   0.59993   0.61224   0.64131   0.65059
 Alpha virt. eigenvalues --    0.66599   0.67979   0.68743   0.69424   0.71165
 Alpha virt. eigenvalues --    0.72714   0.73270   0.74913   0.75563   0.76948
 Alpha virt. eigenvalues --    0.77999   0.79271   0.79910   0.81679   0.82080
 Alpha virt. eigenvalues --    0.83545   0.83915   0.85119   0.85699   0.85858
 Alpha virt. eigenvalues --    0.86448   0.87340   0.87918   0.89358   0.89910
 Alpha virt. eigenvalues --    0.91085   0.91660   0.92967   0.93834   0.94085
 Alpha virt. eigenvalues --    0.96055   0.96692   0.98270   0.98635   1.01781
 Alpha virt. eigenvalues --    1.02268   1.02814   1.04383   1.05634   1.11458
 Alpha virt. eigenvalues --    1.13497   1.16061   1.18011   1.19045   1.21371
 Alpha virt. eigenvalues --    1.27166   1.29061   1.30017   1.31494   1.32634
 Alpha virt. eigenvalues --    1.33522   1.36143   1.36845   1.37744   1.38801
 Alpha virt. eigenvalues --    1.40159   1.45137   1.48349   1.49646   1.53046
 Alpha virt. eigenvalues --    1.57951   1.58859   1.61450   1.62750   1.64215
 Alpha virt. eigenvalues --    1.68820   1.70082   1.71662   1.73217   1.73306
 Alpha virt. eigenvalues --    1.75251   1.76384   1.77174   1.79655   1.81524
 Alpha virt. eigenvalues --    1.83601   1.84958   1.86679   1.87462   1.87775
 Alpha virt. eigenvalues --    1.88543   1.89728   1.90902   1.92193   1.92902
 Alpha virt. eigenvalues --    1.95655   1.97421   1.98220   1.99742   2.00624
 Alpha virt. eigenvalues --    2.01223   2.02041   2.02581   2.02783   2.02887
 Alpha virt. eigenvalues --    2.03210   2.03310   2.03934   2.04958   2.07034
 Alpha virt. eigenvalues --    2.07712   2.08482   2.10140   2.10725   2.11147
 Alpha virt. eigenvalues --    2.13466   2.14098   2.15314   2.16480   2.19724
 Alpha virt. eigenvalues --    2.22107   2.24518   2.25832   2.26625   2.29617
 Alpha virt. eigenvalues --    2.30922   2.33040   2.36197   2.38518   2.40277
 Alpha virt. eigenvalues --    2.42124   2.43348   2.44963   2.49186   2.50531
 Alpha virt. eigenvalues --    2.51856   2.53196   2.53608   2.56062   2.57306
 Alpha virt. eigenvalues --    2.58673   2.59818   2.61141   2.63111   2.64308
 Alpha virt. eigenvalues --    2.65592   2.67113   2.68627   2.69114   2.70193
 Alpha virt. eigenvalues --    2.70822   2.71691   2.75675   2.78059   2.79165
 Alpha virt. eigenvalues --    2.80798   2.82971   2.83153   2.84808   2.86306
 Alpha virt. eigenvalues --    2.88372   2.89066   2.89485   2.90754   2.92734
 Alpha virt. eigenvalues --    2.95788   2.97669   2.98553   3.04947   3.07432
 Alpha virt. eigenvalues --    3.12497   3.14010   3.14712   3.17202   3.18094
 Alpha virt. eigenvalues --    3.22870   3.26854   3.28138   3.32125   3.36968
 Alpha virt. eigenvalues --    3.37341   3.38859   3.41916   3.42692   3.43240
 Alpha virt. eigenvalues --    3.43699   3.43872   3.46176   3.48275   3.49483
 Alpha virt. eigenvalues --    3.56111   3.95004   4.00210   4.07188   4.12779
 Alpha virt. eigenvalues --    4.18289   4.31534   4.38153   4.39593   4.45317
 Alpha virt. eigenvalues --    4.49214   4.51554   4.62392   4.68125   4.72507
          Condensed to atoms (all electrons):
              1          2          3          4          5          6
     1  C    5.154949   0.348730  -0.080921  -0.120103   0.005423  -0.000102
     2  C    0.348730   4.359487   0.588022   0.260815  -0.027932   0.000925
     3  O   -0.080921   0.588022   8.074191  -0.096787  -0.016554  -0.000141
     4  N   -0.120103   0.260815  -0.096787   7.077748   0.280552  -0.041279
     5  C    0.005423  -0.027932  -0.016554   0.280552   5.122675   0.298406
     6  C   -0.000102   0.000925  -0.000141  -0.041279   0.298406   4.418013
     7  O   -0.000027   0.001022  -0.000012   0.000319  -0.088526   0.576249
     8  N    0.000001   0.000004  -0.000011   0.002702  -0.112598   0.273835
     9  C    0.000000   0.000006   0.000010   0.000332  -0.000636  -0.027519
    10  C    0.000000   0.000000   0.000000  -0.000082   0.005369  -0.026118
    11  H    0.367824  -0.023424   0.005232   0.004672  -0.000117   0.000001
    12  H    0.358083  -0.020294   0.001969   0.000973  -0.000224  -0.000007
    13  H    0.365640  -0.021655   0.001030   0.002466  -0.000174   0.000034
    14  H    0.001712  -0.003596   0.035867  -0.040831   0.358224  -0.019130
    15  H   -0.000131   0.001775   0.000988  -0.045584   0.363802  -0.039905
    16  H   -0.000001  -0.000036  -0.000064   0.000150   0.009334  -0.009893
    17  H    0.000000   0.000000   0.000000  -0.000006  -0.000351   0.001374
    18  H    0.000000   0.000001   0.000000  -0.000006  -0.000306   0.000476
    19  H    0.000000   0.000000   0.000000   0.000001  -0.000119   0.001771
    20  H    0.000000   0.000000   0.000000  -0.000011   0.001201  -0.002676
    21  H    0.000000   0.000000   0.000000   0.000001  -0.000106   0.000230
    22  C    0.000560  -0.025357   0.002513   0.256127  -0.044113  -0.003367
    23  H    0.007762  -0.009221   0.000075  -0.028974   0.004578   0.000024
    24  H   -0.000284   0.003054  -0.000082  -0.031190  -0.006326   0.004182
    25  C   -0.002268  -0.001196  -0.000010  -0.055214  -0.003720  -0.000061
    26  H   -0.001075   0.002785  -0.000081   0.002498   0.000014  -0.000004
    27  H    0.000154  -0.000300  -0.000002   0.001117   0.000884   0.000132
    28  O    0.000014   0.000014   0.000000   0.002175   0.000000   0.000002
    29  C    0.000001  -0.000003   0.000000  -0.000132   0.000000   0.000000
    30  H    0.000000   0.000000   0.000000   0.000001   0.000000   0.000000
    31  H    0.000000   0.000000   0.000000   0.000011  -0.000003   0.000000
    32  H   -0.000002   0.000000   0.000000   0.000008   0.000000   0.000000
              7          8          9         10         11         12
     1  C   -0.000027   0.000001   0.000000   0.000000   0.367824   0.358083
     2  C    0.001022   0.000004   0.000006   0.000000  -0.023424  -0.020294
     3  O   -0.000012  -0.000011   0.000010   0.000000   0.005232   0.001969
     4  N    0.000319   0.002702   0.000332  -0.000082   0.004672   0.000973
     5  C   -0.088526  -0.112598  -0.000636   0.005369  -0.000117  -0.000224
     6  C    0.576249   0.273835  -0.027519  -0.026118   0.000001  -0.000007
     7  O    8.091549  -0.091709   0.002697  -0.012503   0.000000   0.000001
     8  N   -0.091709   7.017924   0.300345   0.291768   0.000000   0.000000
     9  C    0.002697   0.300345   4.805268  -0.051722   0.000000   0.000000
    10  C   -0.012503   0.291768  -0.051722   4.819150   0.000000   0.000000
    11  H    0.000000   0.000000   0.000000   0.000000   0.548218  -0.023362
    12  H    0.000001   0.000000   0.000000   0.000000  -0.023362   0.585862
    13  H    0.000009   0.000000   0.000000   0.000000  -0.021289  -0.028658
    14  H    0.000695   0.000814  -0.001792  -0.000150  -0.000040  -0.000060
    15  H    0.001239   0.003364  -0.001902  -0.000280   0.000004   0.000017
    16  H    0.000076  -0.027906   0.385046   0.004267   0.000000   0.000000
    17  H   -0.000029  -0.046352   0.382730  -0.002174   0.000000   0.000000
    18  H   -0.000030  -0.044631   0.384209  -0.002503   0.000000   0.000000
    19  H    0.000689  -0.045557  -0.001575   0.384870   0.000000   0.000000
    20  H    0.024201  -0.036012   0.004315   0.383559   0.000000   0.000000
    21  H    0.000607  -0.044620  -0.002061   0.387787   0.000000   0.000000
    22  C   -0.004705   0.000153  -0.000002  -0.000004   0.000286  -0.000135
    23  H    0.000125  -0.000003   0.000000   0.000000   0.000034  -0.002455
    24  H    0.014370  -0.000307  -0.000013   0.000029  -0.000008   0.000179
    25  C    0.000417   0.000027  -0.000003   0.000000   0.000019  -0.000114
    26  H   -0.000006   0.000000   0.000000   0.000000  -0.000043   0.004260
    27  H    0.000035  -0.000015   0.000000   0.000000   0.000000  -0.000115
    28  O    0.000000   0.000000   0.000000   0.000000   0.000000  -0.000082
    29  C    0.000000   0.000000   0.000000   0.000000   0.000000  -0.000004
    30  H    0.000000   0.000000   0.000000   0.000000   0.000000   0.000000
    31  H    0.000000   0.000000   0.000000   0.000000   0.000000   0.000000
    32  H    0.000000   0.000000   0.000000   0.000000   0.000000   0.000007
             13         14         15         16         17         18
     1  C    0.365640   0.001712  -0.000131  -0.000001   0.000000   0.000000
     2  C   -0.021655  -0.003596   0.001775  -0.000036   0.000000   0.000001
     3  O    0.001030   0.035867   0.000988  -0.000064   0.000000   0.000000
     4  N    0.002466  -0.040831  -0.045584   0.000150  -0.000006  -0.000006
     5  C   -0.000174   0.358224   0.363802   0.009334  -0.000351  -0.000306
     6  C    0.000034  -0.019130  -0.039905  -0.009893   0.001374   0.000476
     7  O    0.000009   0.000695   0.001239   0.000076  -0.000029  -0.000030
     8  N    0.000000   0.000814   0.003364  -0.027906  -0.046352  -0.044631
     9  C    0.000000  -0.001792  -0.001902   0.385046   0.382730   0.384209
    10  C    0.000000  -0.000150  -0.000280   0.004267  -0.002174  -0.002503
    11  H   -0.021289  -0.000040   0.000004   0.000000   0.000000   0.000000
    12  H   -0.028658  -0.000060   0.000017   0.000000   0.000000   0.000000
    13  H    0.561881  -0.000050  -0.000009   0.000000   0.000000   0.000000
    14  H   -0.000050   0.516495  -0.027471   0.000620  -0.000010   0.000271
    15  H   -0.000009  -0.027471   0.622749   0.000208   0.000352   0.000088
    16  H    0.000000   0.000620   0.000208   0.562408  -0.028739  -0.027135
    17  H    0.000000  -0.000010   0.000352  -0.028739   0.617323  -0.047390
    18  H    0.000000   0.000271   0.000088  -0.027135  -0.047390   0.608169
    19  H    0.000000  -0.000007   0.000030  -0.000008   0.006651  -0.002087
    20  H    0.000000  -0.000019  -0.000044  -0.000240  -0.000044  -0.000071
    21  H    0.000000   0.000020  -0.000009   0.000010  -0.001816   0.007255
    22  C   -0.003182   0.004208   0.000194   0.000011  -0.000001   0.000000
    23  H    0.001730  -0.000198  -0.000110   0.000000   0.000000   0.000000
    24  H    0.000120   0.000128  -0.002230  -0.000002   0.000004  -0.000001
    25  C    0.000142   0.000010   0.002589  -0.000001   0.000000   0.000000
    26  H    0.000057  -0.000016  -0.000243   0.000000   0.000000   0.000000
    27  H   -0.000008  -0.000056   0.003044  -0.000006   0.000001   0.000000
    28  O   -0.000005   0.000000  -0.000110   0.000000   0.000000   0.000000
    29  C    0.000000   0.000000   0.000006   0.000000   0.000000   0.000000
    30  H    0.000000   0.000000   0.000000   0.000000   0.000000   0.000000
    31  H    0.000000   0.000000   0.000004   0.000000   0.000000   0.000000
    32  H    0.000000   0.000000   0.000000   0.000000   0.000000   0.000000
             19         20         21         22         23         24
     1  C    0.000000   0.000000   0.000000   0.000560   0.007762  -0.000284
     2  C    0.000000   0.000000   0.000000  -0.025357  -0.009221   0.003054
     3  O    0.000000   0.000000   0.000000   0.002513   0.000075  -0.000082
     4  N    0.000001  -0.000011   0.000001   0.256127  -0.028974  -0.031190
     5  C   -0.000119   0.001201  -0.000106  -0.044113   0.004578  -0.006326
     6  C    0.001771  -0.002676   0.000230  -0.003367   0.000024   0.004182
     7  O    0.000689   0.024201   0.000607  -0.004705   0.000125   0.014370
     8  N   -0.045557  -0.036012  -0.044620   0.000153  -0.000003  -0.000307
     9  C   -0.001575   0.004315  -0.002061  -0.000002   0.000000  -0.000013
    10  C    0.384870   0.383559   0.387787  -0.000004   0.000000   0.000029
    11  H    0.000000   0.000000   0.000000   0.000286   0.000034  -0.000008
    12  H    0.000000   0.000000   0.000000  -0.000135  -0.002455   0.000179
    13  H    0.000000   0.000000   0.000000  -0.003182   0.001730   0.000120
    14  H   -0.000007  -0.000019   0.000020   0.004208  -0.000198   0.000128
    15  H    0.000030  -0.000044  -0.000009   0.000194  -0.000110  -0.002230
    16  H   -0.000008  -0.000240   0.000010   0.000011   0.000000  -0.000002
    17  H    0.006651  -0.000044  -0.001816  -0.000001   0.000000   0.000004
    18  H   -0.002087  -0.000071   0.007255   0.000000   0.000000  -0.000001
    19  H    0.614578  -0.023865  -0.044944   0.000000   0.000000   0.000002
    20  H   -0.023865   0.512564  -0.024986  -0.000004   0.000000   0.000010
    21  H   -0.044944  -0.024986   0.608564   0.000000   0.000000  -0.000001
    22  C    0.000000  -0.000004   0.000000   4.911119   0.377822   0.375668
    23  H    0.000000   0.000000   0.000000   0.377822   0.592051  -0.026341
    24  H    0.000002   0.000010  -0.000001   0.375668  -0.026341   0.560298
    25  C    0.000000   0.000000   0.000000   0.350884  -0.044888  -0.044708
    26  H    0.000000   0.000000   0.000000  -0.037593  -0.008621   0.006000
    27  H    0.000000   0.000000   0.000000  -0.040759   0.006520  -0.007043
    28  O    0.000000   0.000000   0.000000  -0.039845   0.005426   0.005518
    29  C    0.000000   0.000000   0.000000   0.004312  -0.000104  -0.000100
    30  H    0.000000   0.000000   0.000000  -0.000245   0.000008   0.000007
    31  H    0.000000   0.000000   0.000000   0.000038   0.000048  -0.000055
    32  H    0.000000   0.000000   0.000000   0.000032  -0.000066   0.000045
             25         26         27         28         29         30
     1  C   -0.002268  -0.001075   0.000154   0.000014   0.000001   0.000000
     2  C   -0.001196   0.002785  -0.000300   0.000014  -0.000003   0.000000
     3  O   -0.000010  -0.000081  -0.000002   0.000000   0.000000   0.000000
     4  N   -0.055214   0.002498   0.001117   0.002175  -0.000132   0.000001
     5  C   -0.003720   0.000014   0.000884   0.000000   0.000000   0.000000
     6  C   -0.000061  -0.000004   0.000132   0.000002   0.000000   0.000000
     7  O    0.000417  -0.000006   0.000035   0.000000   0.000000   0.000000
     8  N    0.000027   0.000000  -0.000015   0.000000   0.000000   0.000000
     9  C   -0.000003   0.000000   0.000000   0.000000   0.000000   0.000000
    10  C    0.000000   0.000000   0.000000   0.000000   0.000000   0.000000
    11  H    0.000019  -0.000043   0.000000   0.000000   0.000000   0.000000
    12  H   -0.000114   0.004260  -0.000115  -0.000082  -0.000004   0.000000
    13  H    0.000142   0.000057  -0.000008  -0.000005   0.000000   0.000000
    14  H    0.000010  -0.000016  -0.000056   0.000000   0.000000   0.000000
    15  H    0.002589  -0.000243   0.003044  -0.000110   0.000006   0.000000
    16  H   -0.000001   0.000000  -0.000006   0.000000   0.000000   0.000000
    17  H    0.000000   0.000000   0.000001   0.000000   0.000000   0.000000
    18  H    0.000000   0.000000   0.000000   0.000000   0.000000   0.000000
    19  H    0.000000   0.000000   0.000000   0.000000   0.000000   0.000000
    20  H    0.000000   0.000000   0.000000   0.000000   0.000000   0.000000
    21  H    0.000000   0.000000   0.000000   0.000000   0.000000   0.000000
    22  C    0.350884  -0.037593  -0.040759  -0.039845   0.004312  -0.000245
    23  H   -0.044888  -0.008621   0.006520   0.005426  -0.000104   0.000008
    24  H   -0.044708   0.006000  -0.007043   0.005518  -0.000100   0.000007
    25  C    4.803816   0.356544   0.361818   0.232353  -0.033868   0.005390
    26  H    0.356544   0.693717  -0.062968  -0.039040  -0.006520  -0.000110
    27  H    0.361818  -0.062968   0.694673  -0.039086  -0.006314  -0.000113
    28  O    0.232353  -0.039040  -0.039086   8.202851   0.258852  -0.032857
    29  C   -0.033868  -0.006520  -0.006314   0.258852   4.708424   0.394809
    30  H    0.005390  -0.000110  -0.000113  -0.032857   0.394809   0.584707
    31  H   -0.009302  -0.002717   0.013590  -0.037606   0.369623  -0.034886
    32  H   -0.009205   0.013473  -0.002791  -0.037576   0.370148  -0.034972
             31         32
     1  C    0.000000  -0.000002
     2  C    0.000000   0.000000
     3  O    0.000000   0.000000
     4  N    0.000011   0.000008
     5  C   -0.000003   0.000000
     6  C    0.000000   0.000000
     7  O    0.000000   0.000000
     8  N    0.000000   0.000000
     9  C    0.000000   0.000000
    10  C    0.000000   0.000000
    11  H    0.000000   0.000000
    12  H    0.000000   0.000007
    13  H    0.000000   0.000000
    14  H    0.000000   0.000000
    15  H    0.000004   0.000000
    16  H    0.000000   0.000000
    17  H    0.000000   0.000000
    18  H    0.000000   0.000000
    19  H    0.000000   0.000000
    20  H    0.000000   0.000000
    21  H    0.000000   0.000000
    22  C    0.000038   0.000032
    23  H    0.000048  -0.000066
    24  H   -0.000055   0.000045
    25  C   -0.009302  -0.009205
    26  H   -0.002717   0.013473
    27  H    0.013590  -0.002791
    28  O   -0.037606  -0.037576
    29  C    0.369623   0.370148
    30  H   -0.034886  -0.034972
    31  H    0.662919  -0.052835
    32  H   -0.052835   0.661620
 Mulliken atomic charges:
              1
     1  C   -0.405937
     2  C    0.566376
     3  O   -0.515232
     4  N   -0.432471
     5  C   -0.148657
     6  C    0.594548
     7  O   -0.516753
     8  N   -0.441216
     9  C   -0.177734
    10  C   -0.181263
    11  H    0.141993
    12  H    0.124161
    13  H    0.141922
    14  H    0.174360
    15  H    0.117574
    16  H    0.131899
    17  H    0.118476
    18  H    0.123692
    19  H    0.109571
    20  H    0.162123
    21  H    0.114068
    22  C   -0.084616
    23  H    0.124778
    24  H    0.149077
    25  C    0.090549
    26  H    0.079689
    27  H    0.077604
    28  O   -0.480999
    29  C   -0.059130
    30  H    0.118262
    31  H    0.091171
    32  H    0.092113
 Sum of Mulliken atomic charges =   0.00000
 Mulliken charges with hydrogens summed into heavy atoms:
              1
     1  C    0.002139
     2  C    0.566376
     3  O   -0.515232
     4  N   -0.432471
     5  C    0.143278
     6  C    0.594548
     7  O   -0.516753
     8  N   -0.441216
     9  C    0.196333
    10  C    0.204498
    22  C    0.189239
    25  C    0.247843
    28  O   -0.480999
    29  C    0.242416
 Sum of Mulliken charges with hydrogens summed into heavy atoms =   0.00000
 Electronic spatial extent (au):  <R**2>=           3945.7411
 Charge=              0.0000 electrons
 Dipole moment (field-independent basis, Debye):
    X=              0.0557    Y=             -2.9360    Z=              2.6086  Tot=              3.9278
 Quadrupole moment (field-independent basis, Debye-Ang):
   XX=            -67.2771   YY=            -92.0491   ZZ=            -87.4679
   XY=             -4.3012   XZ=              2.7382   YZ=             -7.4014
 Traceless Quadrupole moment (field-independent basis, Debye-Ang):
   XX=             14.9876   YY=             -9.7844   ZZ=             -5.2032
   XY=             -4.3012   XZ=              2.7382   YZ=             -7.4014
 Octapole moment (field-independent basis, Debye-Ang**2):
  XXX=             21.0020  YYY=            -38.6298  ZZZ=              3.9674  XYY=            -15.2046
  XXY=            -16.3135  XXZ=             16.8196  XZZ=             -0.2965  YZZ=             -1.8426
  YYZ=            -13.0852  XYZ=              8.8317
 Hexadecapole moment (field-independent basis, Debye-Ang**3):
 XXXX=          -2960.0434 YYYY=          -1473.9644 ZZZZ=           -455.2272 XXXY=             36.4429
 XXXZ=            -27.6746 YYYX=             10.3618 YYYZ=            -43.9133 ZZZX=             19.2953
 ZZZY=              3.1376 XXYY=           -691.8545 XXZZ=           -605.6145 YYZZ=           -313.0612
 XXYZ=            -12.8036 YYXZ=             -8.7774 ZZXY=             -1.6836
 N-N= 9.568500629428D+02 E-N=-3.519516301411D+03  KE= 6.826157031496D+02
 Calling FoFJK, ICntrl=      2127 FMM=F ISym2X=0 I1Cent= 0 IOpClX= 0 NMat=1 NMatS=1 NMatT=0.
 ***** Axes restored to original set *****
 -------------------------------------------------------------------
 Center     Atomic                   Forces (Hartrees/Bohr)
 Number     Number              X              Y              Z
 -------------------------------------------------------------------
      1        6           0.000003770    0.000000126    0.000003733
      2        6          -0.000965849    0.000395107    0.001534390
      3        8           0.000000986    0.000000005   -0.000003800
      4        7           0.001119912    0.000011691   -0.002119798
      5        6           0.000489574   -0.001864129    0.000363278
      6        6          -0.000649873    0.001446943    0.000207542
      7        8          -0.000006606    0.000002103   -0.000002111
      8        7          -0.000005378    0.000003201   -0.000006020
      9        6           0.000006110   -0.000004672    0.000007577
     10        6           0.000007553    0.000004324   -0.000004429
     11        1          -0.000000374    0.000000213   -0.000002858
     12        1          -0.000001000   -0.000000119   -0.000001210
     13        1          -0.000000314    0.000001147   -0.000002157
     14        1           0.000000140    0.000004221    0.000000720
     15        1           0.000006392   -0.000001404    0.000005308
     16        1           0.000001408    0.000000411   -0.000002450
     17        1          -0.000001674   -0.000000547   -0.000002631
     18        1           0.000000853   -0.000000847   -0.000003765
     19        1          -0.000001527   -0.000000756   -0.000000228
     20        1          -0.000003329    0.000002334   -0.000001023
     21        1          -0.000001006    0.000001083   -0.000001005
     22        6           0.000001121    0.000004126    0.000000211
     23        1           0.000000248    0.000001021   -0.000000679
     24        1          -0.000001715    0.000000054    0.000002186
     25        6          -0.000001232   -0.000003334    0.000003086
     26        1           0.000001055   -0.000000191    0.000002926
     27        1           0.000001480   -0.000000906    0.000002334
     28        8           0.000008710   -0.000004287   -0.000005540
     29        6          -0.000014825    0.000010444    0.000017185
     30        1           0.000000055   -0.000002318    0.000005027
     31        1           0.000001587   -0.000003010    0.000002134
     32        1           0.000003747   -0.000002035    0.000002068
 -------------------------------------------------------------------
 Cartesian Forces:  Max     0.002119798 RMS     0.000403091

 GradGradGradGradGradGradGradGradGradGradGradGradGradGradGradGradGradGrad
 Berny optimization.
 Internal  Forces:  Max     0.001612325 RMS     0.000218895
 Search for a local minimum.
 Step number   1 out of a maximum of  155 on scan point     1 out of    37
 All quantities printed in internal units (Hartrees-Bohrs-Radians)
 Mixed Optimization -- En-DIIS/RFO-DIIS
 Second derivative matrix not updated -- first step.
 ITU=  0
     Eigenvalues ---    0.00346   0.00480   0.00681   0.00878   0.00945
     Eigenvalues ---    0.00982   0.01077   0.01170   0.01268   0.01529
     Eigenvalues ---    0.01531   0.01944   0.02047   0.02892   0.04108
     Eigenvalues ---    0.05325   0.05430   0.05829   0.06415   0.06935
     Eigenvalues ---    0.07285   0.07461   0.07465   0.07481   0.07656
     Eigenvalues ---    0.09519   0.09943   0.10033   0.10507   0.10810
     Eigenvalues ---    0.11132   0.12916   0.13618   0.16000   0.16000
     Eigenvalues ---    0.16000   0.16000   0.16000   0.16000   0.16000
     Eigenvalues ---    0.16000   0.16000   0.16000   0.16000   0.16000
     Eigenvalues ---    0.21912   0.21932   0.22004   0.24649   0.24823
     Eigenvalues ---    0.24963   0.24981   0.24991   0.24996   0.25000
     Eigenvalues ---    0.25000   0.25000   0.28505   0.29261   0.30213
     Eigenvalues ---    0.33259   0.33277   0.33523   0.33526   0.33814
     Eigenvalues ---    0.33895   0.33938   0.33972   0.34010   0.34246
     Eigenvalues ---    0.34383   0.34525   0.34540   0.34728   0.34770
     Eigenvalues ---    0.34896   0.35013   0.35081   0.36777   0.37417
     Eigenvalues ---    0.37770   0.37969   0.43635   0.43666   0.48926
     Eigenvalues ---    0.50374   0.91923   0.923781000.000001000.00000
     Eigenvalues --- 1000.000001000.000001000.000001000.000001000.00000
     Eigenvalues --- 1000.000001000.000001000.000001000.000001000.00000
     Eigenvalues --- 1000.000001000.000001000.000001000.000001000.00000
     Eigenvalues --- 1000.000001000.000001000.000001000.000001000.00000
     Eigenvalues --- 1000.000001000.000001000.000001000.000001000.00000
     Eigenvalues --- 1000.000001000.000001000.000001000.000001000.00000
     Eigenvalues --- 1000.000001000.000001000.000001000.000001000.00000
     Eigenvalues --- 1000.000001000.000001000.000001000.000001000.00000
     Eigenvalues --- 1000.000001000.000001000.000001000.000001000.00000
     Eigenvalues --- 1000.000001000.000001000.000001000.000001000.00000
     Eigenvalues --- 1000.000001000.000001000.000001000.000001000.00000
 RFO step:  Lambda= 0.00000000D+00 EMin= 3.45709161D-03
 Linear search not attempted -- first point.
 Iteration  1 RMS(Cart)=  0.00012196 RMS(Int)=  0.00000001
 Iteration  2 RMS(Cart)=  0.00000001 RMS(Int)=  0.00000000
 Iteration  1 RMS(Cart)=  0.00000000 RMS(Int)=  0.00000000
 Variable       Old X    -DE/DX   Delta X   Delta X   Delta X     New X
                                 (Linear)    (Quad)   (Total)
    R1        2.87541   0.00000   0.00000   0.00001   0.00001   2.87543
    R2        2.05844   0.00000   0.00000   0.00000   0.00000   2.05844
    R3        2.06689   0.00000   0.00000   0.00000   0.00000   2.06689
    R4        2.06917   0.00000   0.00000   0.00000   0.00000   2.06917
    R5        2.32059   0.00000   0.00000   0.00000   0.00000   2.32059
    R6        2.60965  -0.00001   0.00000  -0.00003  -0.00003   2.60962
    R7        2.74410   0.00000   0.00000   0.00001   0.00001   2.74411
    R8        2.76183   0.00000   0.00000   0.00000   0.00000   2.76183
    R9        2.91047   0.00000   0.00000  -0.00001  -0.00001   2.91046
   R10        2.06453   0.00000   0.00000   0.00001   0.00001   2.06454
   R11        2.07645   0.00000   0.00000  -0.00001  -0.00001   2.07644
   R12        2.31856   0.00000   0.00000   0.00000   0.00000   2.31856
   R13        2.59490   0.00000   0.00000  -0.00001  -0.00001   2.59489
   R14        2.74701  -0.00001   0.00000  -0.00002  -0.00002   2.74699
   R15        2.75223   0.00000   0.00000  -0.00001  -0.00001   2.75222
   R16        2.05544   0.00000   0.00000   0.00000   0.00000   2.05544
   R17        2.07507   0.00000   0.00000   0.00000   0.00000   2.07507
   R18        2.07435   0.00000   0.00000   0.00000   0.00000   2.07435
   R19        2.07313   0.00000   0.00000   0.00000   0.00000   2.07314
   R20        2.05654   0.00000   0.00000   0.00000   0.00000   2.05654
   R21        2.07378   0.00000   0.00000   0.00000   0.00000   2.07378
   R22        2.06119   0.00000   0.00000   0.00000   0.00000   2.06119
   R23        2.06050   0.00000   0.00000   0.00000   0.00000   2.06051
   R24        2.89462   0.00000   0.00000   0.00000   0.00000   2.89462
   R25        2.08568   0.00000   0.00000   0.00000   0.00000   2.08568
   R26        2.08600   0.00000   0.00000   0.00000   0.00000   2.08600
   R27        2.66894   0.00000   0.00000  -0.00001  -0.00001   2.66893
   R28        2.66856  -0.00001   0.00000  -0.00003  -0.00003   2.66853
   R29        2.06429   0.00000   0.00000   0.00000   0.00000   2.06429
   R30        2.08142   0.00000   0.00000   0.00001   0.00001   2.08143
   R31        2.08137   0.00000   0.00000   0.00001   0.00001   2.08138
    A1        1.87139   0.00000   0.00000  -0.00001  -0.00001   1.87138
    A2        1.96759   0.00000   0.00000  -0.00001  -0.00001   1.96757
    A3        1.93620   0.00000   0.00000   0.00001   0.00001   1.93621
    A4        1.90591   0.00000   0.00000   0.00000   0.00000   1.90591
    A5        1.90175   0.00000   0.00000   0.00001   0.00001   1.90176
    A6        1.88020   0.00000   0.00000   0.00001   0.00001   1.88021
    A7        2.10600   0.00000   0.00000   0.00000   0.00000   2.10601
    A8        2.04913   0.00000   0.00000  -0.00001  -0.00001   2.04912
    A9        2.12769   0.00000   0.00000   0.00001   0.00001   2.12769
   A10        2.04754  -0.00005   0.00000   0.00001   0.00001   2.04754
   A11        2.16141   0.00014   0.00000  -0.00003  -0.00003   2.16138
   A12        2.06477  -0.00003   0.00000   0.00001   0.00001   2.06477
   A13        1.96360   0.00004   0.00000   0.00001   0.00001   1.96361
   A14        1.85167  -0.00007   0.00000  -0.00002  -0.00002   1.85166
   A15        1.92805   0.00004   0.00000  -0.00005  -0.00005   1.92800
   A16        1.93402  -0.00075   0.00000  -0.00001  -0.00001   1.93402
   A17        1.90454   0.00071   0.00000   0.00001   0.00001   1.90456
   A18        1.87987   0.00000   0.00000   0.00005   0.00005   1.87992
   A19        2.11632   0.00000   0.00000   0.00001   0.00001   2.11633
   A20        2.03404   0.00000   0.00000   0.00002   0.00002   2.03405
   A21        2.13269  -0.00001   0.00000  -0.00003  -0.00003   2.13266
   A22        2.19336   0.00000   0.00000   0.00001   0.00001   2.19337
   A23        2.07587  -0.00001   0.00000  -0.00003  -0.00003   2.07584
   A24        2.01283   0.00000   0.00000   0.00001   0.00001   2.01285
   A25        1.95102   0.00000   0.00000   0.00000   0.00000   1.95102
   A26        1.93146   0.00000   0.00000   0.00002   0.00002   1.93149
   A27        1.92581   0.00000   0.00000  -0.00001  -0.00001   1.92580
   A28        1.88934   0.00000   0.00000   0.00001   0.00001   1.88935
   A29        1.88262   0.00000   0.00000  -0.00001  -0.00001   1.88261
   A30        1.88139   0.00000   0.00000  -0.00002  -0.00002   1.88137
   A31        1.92564   0.00000   0.00000   0.00001   0.00001   1.92565
   A32        1.89301   0.00000   0.00000   0.00001   0.00001   1.89302
   A33        1.93120   0.00000   0.00000   0.00001   0.00001   1.93121
   A34        1.91495   0.00000   0.00000  -0.00001  -0.00001   1.91495
   A35        1.89004   0.00000   0.00000   0.00000   0.00000   1.89004
   A36        1.90901   0.00000   0.00000  -0.00002  -0.00002   1.90899
   A37        1.92024   0.00000   0.00000   0.00001   0.00001   1.92025
   A38        1.89057   0.00000   0.00000   0.00001   0.00001   1.89057
   A39        1.97059   0.00000   0.00000  -0.00002  -0.00002   1.97057
   A40        1.85508   0.00000   0.00000   0.00001   0.00001   1.85509
   A41        1.90561   0.00000   0.00000  -0.00001  -0.00001   1.90560
   A42        1.91819   0.00000   0.00000   0.00001   0.00001   1.91820
   A43        1.93102   0.00000   0.00000  -0.00001  -0.00001   1.93101
   A44        1.92903   0.00000   0.00000   0.00000   0.00000   1.92903
   A45        1.87208   0.00000   0.00000   0.00001   0.00001   1.87210
   A46        1.86403   0.00000   0.00000   0.00000   0.00000   1.86404
   A47        1.93563   0.00000   0.00000   0.00000   0.00000   1.93562
   A48        1.93293   0.00000   0.00000  -0.00001  -0.00001   1.93293
   A49        1.97374   0.00000   0.00000   0.00000   0.00000   1.97373
   A50        1.87246   0.00000   0.00000   0.00000   0.00000   1.87246
   A51        1.95152   0.00000   0.00000   0.00001   0.00001   1.95153
   A52        1.95186   0.00000   0.00000   0.00003   0.00003   1.95189
   A53        1.89947   0.00000   0.00000  -0.00002  -0.00002   1.89945
   A54        1.89967   0.00000   0.00000  -0.00001  -0.00001   1.89966
   A55        1.88777   0.00000   0.00000  -0.00002  -0.00002   1.88775
    D1       -0.07912   0.00000   0.00000   0.00007   0.00007  -0.07905
    D2        3.09097   0.00000   0.00000   0.00000   0.00000   3.09097
    D3       -2.17723   0.00000   0.00000   0.00009   0.00009  -2.17714
    D4        0.99286   0.00000   0.00000   0.00002   0.00002   0.99288
    D5        1.99557   0.00000   0.00000   0.00008   0.00008   1.99565
    D6       -1.11752   0.00000   0.00000   0.00001   0.00001  -1.11751
    D7        3.13720  -0.00026   0.00000   0.00012   0.00012   3.13732
    D8       -0.15471   0.00026   0.00000   0.00000   0.00000  -0.15471
    D9        0.02449  -0.00026   0.00000   0.00005   0.00005   0.02454
   D10        3.01576   0.00026   0.00000  -0.00007  -0.00007   3.01569
   D11       -2.11761   0.00161   0.00000   0.00000   0.00000  -2.11761
   D12       -0.00019   0.00066   0.00000  -0.00001  -0.00001  -0.00020
   D13        2.03246   0.00064   0.00000   0.00001   0.00001   2.03248
   D14        1.16574   0.00111   0.00000   0.00012   0.00012   1.16585
   D15       -3.00003   0.00015   0.00000   0.00010   0.00010  -2.99992
   D16       -0.96738   0.00014   0.00000   0.00013   0.00013  -0.96725
   D17        0.59654  -0.00026   0.00000   0.00004   0.00004   0.59658
   D18        2.61751  -0.00026   0.00000   0.00006   0.00006   2.61756
   D19       -1.53717  -0.00026   0.00000   0.00006   0.00006  -1.53710
   D20       -2.69676   0.00026   0.00000  -0.00008  -0.00008  -2.69684
   D21       -0.67579   0.00026   0.00000  -0.00006  -0.00006  -0.67585
   D22        1.45272   0.00026   0.00000  -0.00006  -0.00006   1.45266
   D23       -0.01083  -0.00039   0.00000   0.00012   0.00012  -0.01071
   D24       -3.13458  -0.00039   0.00000   0.00000   0.00000  -3.13458
   D25       -2.08055   0.00019   0.00000   0.00014   0.00014  -2.08041
   D26        1.07888   0.00019   0.00000   0.00002   0.00002   1.07890
   D27        2.13553   0.00020   0.00000   0.00007   0.00007   2.13559
   D28       -0.98823   0.00020   0.00000  -0.00005  -0.00005  -0.98828
   D29       -0.07762   0.00000   0.00000   0.00003   0.00003  -0.07759
   D30        3.11746   0.00000   0.00000   0.00002   0.00002   3.11748
   D31        3.08199   0.00000   0.00000  -0.00009  -0.00009   3.08190
   D32       -0.00611   0.00000   0.00000  -0.00010  -0.00010  -0.00622
   D33       -0.00579   0.00000   0.00000   0.00000   0.00000  -0.00579
   D34        2.10159   0.00000   0.00000   0.00003   0.00003   2.10162
   D35       -2.10080   0.00000   0.00000   0.00002   0.00002  -2.10078
   D36        3.08401   0.00000   0.00000   0.00001   0.00001   3.08402
   D37       -1.09179   0.00000   0.00000   0.00004   0.00004  -1.09175
   D38        0.98901   0.00000   0.00000   0.00003   0.00003   0.98904
   D39       -2.16231   0.00000   0.00000   0.00002   0.00002  -2.16230
   D40       -0.06440   0.00000   0.00000   0.00002   0.00002  -0.06438
   D41        2.02957   0.00000   0.00000   0.00001   0.00001   2.02958
   D42        1.02735   0.00000   0.00000   0.00001   0.00001   1.02736
   D43        3.12526   0.00000   0.00000   0.00001   0.00001   3.12527
   D44       -1.06395   0.00000   0.00000   0.00000   0.00000  -1.06395
   D45        1.06112   0.00000   0.00000   0.00009   0.00009   1.06121
   D46       -0.99991   0.00000   0.00000   0.00009   0.00009  -0.99981
   D47       -3.10876   0.00000   0.00000   0.00009   0.00009  -3.10867
   D48       -1.08077   0.00000   0.00000   0.00010   0.00010  -1.08066
   D49        3.14139   0.00000   0.00000   0.00010   0.00010   3.14150
   D50        1.03254   0.00000   0.00000   0.00010   0.00010   1.03264
   D51       -3.10917   0.00000   0.00000   0.00010   0.00010  -3.10908
   D52        1.11299   0.00000   0.00000   0.00010   0.00010   1.11308
   D53       -0.99587   0.00000   0.00000   0.00009   0.00009  -0.99577
   D54        3.13873   0.00000   0.00000  -0.00003  -0.00003   3.13870
   D55       -1.03406   0.00000   0.00000  -0.00003  -0.00003  -1.03410
   D56        1.03235   0.00000   0.00000  -0.00004  -0.00004   1.03231
   D57       -3.14128   0.00000   0.00000   0.00008   0.00008  -3.14120
   D58       -1.05992   0.00000   0.00000   0.00007   0.00007  -1.05986
   D59        1.06010   0.00000   0.00000   0.00007   0.00007   1.06018
         Item               Value     Threshold  Converged?
 Maximum Force            0.000014     0.000450     YES
 RMS     Force            0.000003     0.000300     YES
 Maximum Displacement     0.000381     0.001800     YES
 RMS     Displacement     0.000122     0.001200     YES
 Predicted change in Energy=-3.162399D-09
 Optimization completed.
    -- Stationary point found.
                           ----------------------------
                           !   Optimized Parameters   !
                           ! (Angstroms and Degrees)  !
 --------------------------                            --------------------------
 ! Name  Definition              Value          Derivative Info.                !
 --------------------------------------------------------------------------------
 ! R1    R(1,2)                  1.5216         -DE/DX =    0.0                 !
 ! R2    R(1,11)                 1.0893         -DE/DX =    0.0                 !
 ! R3    R(1,12)                 1.0938         -DE/DX =    0.0                 !
 ! R4    R(1,13)                 1.095          -DE/DX =    0.0                 !
 ! R5    R(2,3)                  1.228          -DE/DX =    0.0                 !
 ! R6    R(2,4)                  1.381          -DE/DX =    0.0                 !
 ! R7    R(4,5)                  1.4521         -DE/DX =    0.0                 !
 ! R8    R(4,22)                 1.4615         -DE/DX =    0.0                 !
 ! R9    R(5,6)                  1.5402         -DE/DX =    0.0                 !
 ! R10   R(5,14)                 1.0925         -DE/DX =    0.0                 !
 ! R11   R(5,15)                 1.0988         -DE/DX =    0.0                 !
 ! R12   R(6,7)                  1.2269         -DE/DX =    0.0                 !
 ! R13   R(6,8)                  1.3732         -DE/DX =    0.0                 !
 ! R14   R(8,9)                  1.4537         -DE/DX =    0.0                 !
 ! R15   R(8,10)                 1.4564         -DE/DX =    0.0                 !
 ! R16   R(9,16)                 1.0877         -DE/DX =    0.0                 !
 ! R17   R(9,17)                 1.0981         -DE/DX =    0.0                 !
 ! R18   R(9,18)                 1.0977         -DE/DX =    0.0                 !
 ! R19   R(10,19)                1.0971         -DE/DX =    0.0                 !
 ! R20   R(10,20)                1.0883         -DE/DX =    0.0                 !
 ! R21   R(10,21)                1.0974         -DE/DX =    0.0                 !
 ! R22   R(22,23)                1.0907         -DE/DX =    0.0                 !
 ! R23   R(22,24)                1.0904         -DE/DX =    0.0                 !
 ! R24   R(22,25)                1.5318         -DE/DX =    0.0                 !
 ! R25   R(25,26)                1.1037         -DE/DX =    0.0                 !
 ! R26   R(25,27)                1.1039         -DE/DX =    0.0                 !
 ! R27   R(25,28)                1.4123         -DE/DX =    0.0                 !
 ! R28   R(28,29)                1.4121         -DE/DX =    0.0                 !
 ! R29   R(29,30)                1.0924         -DE/DX =    0.0                 !
 ! R30   R(29,31)                1.1014         -DE/DX =    0.0                 !
 ! R31   R(29,32)                1.1014         -DE/DX =    0.0                 !
 ! A1    A(2,1,11)             107.2226         -DE/DX =    0.0                 !
 ! A2    A(2,1,12)             112.7345         -DE/DX =    0.0                 !
 ! A3    A(2,1,13)             110.9359         -DE/DX =    0.0                 !
 ! A4    A(11,1,12)            109.2007         -DE/DX =    0.0                 !
 ! A5    A(11,1,13)            108.9622         -DE/DX =    0.0                 !
 ! A6    A(12,1,13)            107.7276         -DE/DX =    0.0                 !
 ! A7    A(1,2,3)              120.6651         -DE/DX =    0.0                 !
 ! A8    A(1,2,4)              117.4065         -DE/DX =    0.0                 !
 ! A9    A(3,2,4)              121.9074         -DE/DX =    0.0                 !
 ! A10   A(2,4,5)              117.3153         -DE/DX =    0.0                 !
 ! A11   A(2,4,22)             123.8394         -DE/DX =    0.0001              !
 ! A12   A(5,4,22)             118.3024         -DE/DX =    0.0                 !
 ! A13   A(4,5,6)              112.5061         -DE/DX =    0.0                 !
 ! A14   A(4,5,14)             106.0931         -DE/DX =   -0.0001              !
 ! A15   A(4,5,15)             110.4694         -DE/DX =    0.0                 !
 ! A16   A(6,5,14)             110.8113         -DE/DX =   -0.0008              !
[...]
    D7        3.08176  -0.00010   0.00010  -0.00015  -0.00005   3.08171
    D8       -0.09477   0.00009  -0.00039   0.00001  -0.00038  -0.09515
    D9       -0.04853  -0.00010   0.00018  -0.00029  -0.00011  -0.04864
   D10        3.05812   0.00009  -0.00031  -0.00012  -0.00043   3.05769
   D11       -2.11760   0.00098   0.00000   0.00000   0.00000  -2.11760
   D12       -0.09115   0.00006   0.00010  -0.00011  -0.00002  -0.09117
   D13        1.94204  -0.00001   0.00015  -0.00011   0.00004   1.94208
   D14        1.05682   0.00081   0.00046  -0.00015   0.00030   1.05713
   D15        3.08328  -0.00012   0.00055  -0.00027   0.00028   3.08356
   D16       -1.16672  -0.00019   0.00061  -0.00027   0.00034  -1.16638
   D17        0.52271  -0.00010   0.00071  -0.00058   0.00014   0.52285
   D18        2.55607  -0.00010   0.00075  -0.00055   0.00020   2.55627
   D19       -1.61268  -0.00009   0.00075  -0.00049   0.00027  -1.61241
   D20       -2.65403   0.00009   0.00023  -0.00041  -0.00019  -2.65421
   D21       -0.62066   0.00009   0.00026  -0.00039  -0.00013  -0.62079
   D22        1.49377   0.00010   0.00026  -0.00032  -0.00006   1.49372
   D23        1.01595  -0.00117  -0.00028  -0.00008  -0.00035   1.01560
   D24       -2.08739  -0.00208   0.00000   0.00000   0.00000  -2.08739
   D25       -0.99865   0.00006  -0.00029  -0.00016  -0.00045  -0.99910
   D26        2.18120  -0.00085  -0.00001  -0.00008  -0.00010   2.18110
   D27       -3.07764   0.00010  -0.00044  -0.00017  -0.00061  -3.07825
   D28        0.10221  -0.00081  -0.00016  -0.00009  -0.00026   0.10195
   D29       -0.12301   0.00047  -0.00058  -0.00020  -0.00078  -0.12379
   D30       -3.05543   0.00045  -0.00033  -0.00045  -0.00078  -3.05621
   D31        3.05817  -0.00047  -0.00029  -0.00012  -0.00041   3.05776
   D32        0.12575  -0.00048  -0.00003  -0.00037  -0.00041   0.12534
   D33        0.50285  -0.00001   0.00201   0.00151   0.00352   0.50638
   D34        2.57237   0.00000   0.00209   0.00141   0.00350   2.57587
   D35       -1.63221   0.00000   0.00204   0.00149   0.00353  -1.62867
   D36       -2.84214   0.00000   0.00177   0.00172   0.00349  -2.83866
   D37       -0.77263   0.00001   0.00185   0.00162   0.00347  -0.76916
   D38        1.30598   0.00001   0.00180   0.00170   0.00350   1.30948
   D39       -2.27131  -0.00001   0.00014   0.00022   0.00036  -2.27095
   D40       -0.17500   0.00001   0.00018   0.00035   0.00053  -0.17446
   D41        1.92043   0.00000   0.00007   0.00033   0.00039   1.92082
   D42        1.05485   0.00000   0.00039   0.00005   0.00045   1.05529
   D43       -3.13202   0.00001   0.00044   0.00018   0.00062  -3.13140
   D44       -1.03660   0.00000   0.00032   0.00016   0.00048  -1.03611
   D45        1.07312   0.00000  -0.00037  -0.00021  -0.00057   1.07255
   D46       -0.98292   0.00000  -0.00041  -0.00026  -0.00066  -0.98358
   D47       -3.09519   0.00001  -0.00038  -0.00017  -0.00055  -3.09574
   D48       -1.07518   0.00000  -0.00040  -0.00021  -0.00061  -1.07579
   D49       -3.13122  -0.00001  -0.00044  -0.00026  -0.00070  -3.13192
   D50        1.03969   0.00000  -0.00041  -0.00018  -0.00059   1.03911
   D51       -3.09249  -0.00001  -0.00039  -0.00026  -0.00065  -3.09314
   D52        1.13466  -0.00001  -0.00043  -0.00031  -0.00075   1.13391
   D53       -0.97761   0.00000  -0.00040  -0.00023  -0.00063  -0.97824
   D54       -3.12483   0.00001   0.00027   0.00040   0.00067  -3.12417
   D55       -1.02017   0.00001   0.00025   0.00040   0.00065  -1.01951
   D56        1.05017   0.00001   0.00025   0.00043   0.00068   1.05085
   D57       -3.14062   0.00001   0.00007   0.00034   0.00041  -3.14021
   D58       -1.05905   0.00000   0.00008   0.00031   0.00039  -1.05866
   D59        1.06067   0.00001   0.00007   0.00035   0.00042   1.06109
         Item               Value     Threshold  Converged?
 Maximum Force            0.000083     0.000450     YES
 RMS     Force            0.000015     0.000300     YES
 Maximum Displacement     0.007299     0.001800     NO 
 RMS     Displacement     0.001189     0.001200     YES
 Predicted change in Energy=-1.272364D-07
 GradGradGradGradGradGradGradGradGradGradGradGradGradGradGradGradGradGrad

                          Input orientation:                          
 ---------------------------------------------------------------------
 Center     Atomic      Atomic             Coordinates (Angstroms)
 Number     Number       Type             X           Y           Z
 ---------------------------------------------------------------------
      1          6           0        2.215302    2.594089    0.879772
      2          6           0        0.907611    2.442667    0.114795
      3          8           0        0.356745    3.416733   -0.384575
      4          7           0        0.368555    1.172948    0.021626
      5          6           0       -0.923154    1.033434   -0.644195
      6          6           0       -1.958626    0.407722    0.304379
      7          8           0       -2.199940    0.974688    1.364242
      8          7           0       -2.553081   -0.789618   -0.033454
      9          6           0       -2.416922   -1.498423   -1.298170
     10          6           0       -3.609015   -1.296382    0.838102
     11          1           0        2.522659    3.634929    0.786895
     12          1           0        3.010307    1.949468    0.493087
     13          1           0        2.078770    2.358998    1.940562
     14          1           0       -1.260615    2.047020   -0.869129
     15          1           0       -0.810359    0.503255   -1.593364
     16          1           0       -1.457254   -1.302557   -1.772434
     17          1           0       -2.474920   -2.575046   -1.107883
     18          1           0       -3.217593   -1.238998   -2.005318
     19          1           0       -3.413006   -2.343480    1.095061
     20          1           0       -3.627908   -0.691762    1.742321
     21          1           0       -4.586681   -1.239428    0.341600
     22          6           0        1.027878   -0.032805    0.507529
     23          1           0        1.665063    0.200746    1.361319
     24          1           0        0.270367   -0.733426    0.871256
     25          6           0        1.868555   -0.728666   -0.567396
     26          1           0        2.672524   -0.058318   -0.915532
     27          1           0        1.248234   -0.967677   -1.448798
     28          8           0        2.398954   -1.903802    0.007738
     29          6           0        3.220090   -2.634321   -0.880137
     30          1           0        3.574608   -3.516474   -0.342385
     31          1           0        2.666027   -2.961081   -1.774153
     32          1           0        4.089654   -2.045455   -1.210907
 ---------------------------------------------------------------------
                    Distance matrix (angstroms):
                    1          2          3          4          5
     1  C    0.000000
     2  C    1.522555   0.000000
     3  O    2.393648   1.225409   0.000000
     4  N    2.483250   1.382552   2.280287   0.000000
     5  C    3.822045   2.431811   2.717657   1.459896   0.000000
     6  C    4.746889   3.520264   3.858723   2.466028   1.537371
     7  O    4.727741   3.656906   3.944437   2.905012   2.380642
     8  N    5.917848   4.737725   5.126769   3.520036   2.520553
     9  C    6.553593   5.346137   5.717223   4.078844   3.011532
    10  C    7.004297   5.907925   6.279780   4.752398   3.852155
    11  H    1.089240   2.116976   2.472071   3.359636   4.548563
    12  H    1.094119   2.192643   3.156668   2.793584   4.195789
    13  H    1.095073   2.170724   3.080655   2.830877   4.177277
    14  H    3.929369   2.413680   2.174111   2.052229   1.091710
    15  H    4.431999   3.103313   3.363281   2.108678   1.093039
    16  H    5.975426   4.814657   5.242942   3.560949   2.648592
    17  H    7.257335   6.173646   6.666552   4.838243   3.955263
    18  H    7.247941   5.921727   6.089214   4.773515   3.504433
    19  H    7.490246   6.521952   7.041335   5.274252   4.541798
    20  H    6.758987   5.748428   6.105806   4.733884   3.998432
    21  H    7.826394   6.617893   6.829686   5.520535   4.422569
    22  C    2.906736   2.509317   3.625684   1.457618   2.503969
    23  H    2.502547   2.674653   3.886182   2.102590   3.378509
    24  H    3.854244   3.326542   4.336864   2.089443   2.615890
    25  C    3.640773   3.383216   4.416257   2.492605   3.302201
    26  H    3.235341   3.229771   4.209600   2.775347   3.767552
    27  H    4.363902   3.767134   4.598954   2.741944   3.060516
    28  O    4.585324   4.596451   5.712497   3.686340   4.482050
    29  C    5.607420   5.666857   6.712644   4.841459   5.538463
    30  H    6.378116   6.544712   7.643676   5.692272   6.404890
    31  H    6.173037   5.988377   6.923888   5.058992   5.487730
    32  H    5.423053   5.659163   6.667304   5.071867   5.910073
                    6          7          8          9         10
     6  C    0.000000
     7  O    1.225966   0.000000
     8  N    1.378815   2.278385   0.000000
     9  C    2.532111   3.640302   1.456176   0.000000
    10  C    2.431587   2.723981   1.459937   2.454702   0.000000
    11  H    5.543429   5.450978   6.783268   7.422820   7.868792
    12  H    5.206044   5.371758   6.223433   6.674681   7.380380
    13  H    4.773379   4.533853   5.938398   6.751321   6.850411
    14  H    2.133457   2.649562   3.227280   3.753836   4.428087
    15  H    2.220152   3.301609   2.672437   2.583582   4.121067
    16  H    2.736710   3.946665   2.118489   1.088234   3.383048
    17  H    3.340351   4.334469   2.085248   1.094847   2.589982
    18  H    3.103447   4.158119   2.128794   1.099288   2.870808
    19  H    3.210843   3.543194   2.104164   2.726511   1.095838
    20  H    2.462325   2.226901   2.078030   3.370724   1.087905
    21  H    3.101799   3.412423   2.116252   2.731991   1.097993
    22  C    3.025647   3.488239   3.699823   4.156348   4.817331
    23  H    3.780356   3.941731   4.551808   5.159715   5.507363
    24  H    2.567485   3.043535   2.965386   3.537393   3.920156
    25  C    4.086402   4.815111   4.454174   4.414960   5.683440
    26  H    4.811749   5.477717   5.349749   5.303091   6.638205
    27  H    3.905036   4.855501   4.060160   3.706447   5.378739
    28  O    4.941624   5.592463   5.075997   5.006235   6.095421
    29  C    6.121781   6.887591   6.119583   5.765494   7.167921
    30  H    6.814272   7.511892   6.714145   6.394098   7.610965
    31  H    6.087409   7.001246   5.914759   5.310584   6.997946
    32  H    6.700438   7.437181   6.862175   6.530114   8.001815
                   11         12         13         14         15
    11  H    0.000000
    12  H    1.779018   0.000000
    13  H    1.776510   1.769368   0.000000
    14  H    4.424595   4.483964   4.375294   0.000000
    15  H    5.155776   4.587189   4.927422   1.763649   0.000000
    16  H    6.838760   5.972215   6.300539   3.474808   1.926524
    17  H    8.193276   7.288487   7.373866   4.784875   3.533042
    18  H    8.031321   7.429340   7.521105   3.989812   2.999988
    19  H    8.430212   7.749241   7.279271   5.269471   4.701628
    20  H    7.580407   7.252764   6.473995   4.463706   4.526969
    21  H    8.631359   8.240524   7.741679   4.830043   4.587116
    22  C    3.970478   2.803505   2.979712   3.384976   2.842574
    23  H    3.585951   2.370978   2.272604   4.116214   3.866443
    24  H    4.915533   3.853336   3.738559   3.619907   2.961706
    25  C    4.615508   3.098487   3.983430   4.193707   3.121990
    26  H    4.069495   2.475784   3.788566   4.461411   3.592394
    27  H    5.273184   3.922442   4.821237   3.964687   2.534235
    28  O    5.594635   3.931540   4.691460   5.456220   4.319391
    29  C    6.524485   4.789663   5.847410   6.480108   5.157286
    30  H    7.316040   5.558145   6.478469   7.389811   6.078742
    31  H    7.077208   5.419631   6.515154   6.427960   4.911168
    32  H    6.222014   4.475265   5.777077   6.744668   5.536454
                   16         17         18         19         20
    16  H    0.000000
    17  H    1.759687   0.000000
    18  H    1.776815   1.772563   0.000000
    19  H    3.623674   2.405533   3.297031   0.000000
    20  H    4.175921   3.605524   3.809544   1.786982   0.000000
    21  H    3.777094   2.888669   2.717061   1.778805   1.783593
    22  C    3.603662   4.619755   5.078713   5.040423   4.861613
    23  H    4.672172   5.562503   6.103068   5.686015   5.381197
    24  H    3.209000   3.852941   4.549302   4.026115   3.994626
    25  C    3.583639   4.750475   5.310081   5.767692   5.962152
    26  H    4.397440   5.732984   6.105336   6.804273   6.867378
    27  H    2.745278   4.069611   4.508542   5.485546   5.834050
    28  O    4.289621   5.044782   6.003329   5.929120   6.387557
    29  C    4.944424   5.699870   6.682569   6.927045   7.585902
    30  H    5.680326   6.170013   7.354335   7.229724   8.012567
    31  H    4.444339   5.198295   6.134819   6.750442   7.558375
    32  H    5.624535   6.586707   7.394412   7.854694   8.373459
                   21         22         23         24         25
    21  H    0.000000
    22  C    5.745149   0.000000
    23  H    6.496017   1.090646   0.000000
    24  H    4.911974   1.094070   1.748719   0.000000
    25  C    6.538900   1.531804   2.150618   2.150336   0.000000
    26  H    7.461331   2.174998   2.503226   3.068997   1.103146
    27  H    6.109469   2.179394   3.071762   2.528587   1.103990
    28  O    7.025094   2.372819   2.607663   2.578048   1.411753
    29  C    8.023966   3.674139   3.934443   3.921945   2.357112
    30  H    8.500553   4.398197   4.512948   4.487348   3.276145
    31  H    7.748695   4.057636   4.564019   4.207116   2.660057
    32  H    8.850918   4.047006   4.188127   4.543543   2.661076
                   26         27         28         29         30
    26  H    0.000000
    27  H    1.771979   0.000000
    28  O    2.081605   2.078938   0.000000
    29  C    2.633795   2.643727   1.412885   0.000000
    30  H    3.619544   3.623884   2.026193   1.092270   0.000000
    31  H    3.027096   2.467722   2.089091   1.101373   1.784360
    32  H    2.458500   3.048256   2.088929   1.101051   1.784237
                   31         32
    31  H    0.000000
    32  H    1.783909   0.000000
 Stoichiometry    C9H18N2O3
 Framework group  C1[X(C9H18N2O3)]
 Deg. of freedom    90
 Full point group                 C1      NOp   1
 Largest Abelian subgroup         C1      NOp   1
 Largest concise Abelian subgroup C1      NOp   1
                         Standard orientation:                         
 ---------------------------------------------------------------------
 Center     Atomic      Atomic             Coordinates (Angstroms)
 Number     Number       Type             X           Y           Z
 ---------------------------------------------------------------------
      1          6           0       -2.395096    2.419705   -0.611290
      2          6           0       -1.131987    2.217533    0.214456
      3          8           0       -0.694272    3.117503    0.921624
      4          7           0       -0.500482    0.991187    0.121038
      5          6           0        0.752225    0.817887    0.850413
      6          6           0        1.893806    0.448015   -0.110576
      7          8           0        2.157463    1.215267   -1.029708
      8          7           0        2.558734   -0.748715    0.053249
      9          6           0        2.397682   -1.685772    1.156171
     10          6           0        3.706166   -1.014761   -0.809327
     11          1           0       -2.789954    3.402791   -0.358166
     12          1           0       -3.159547    1.663351   -0.409696
     13          1           0       -2.171572    2.393618   -1.682990
     14          1           0        0.992352    1.792921    1.278757
     15          1           0        0.620662    0.115662    1.677641
     16          1           0        1.396650   -1.645022    1.581054
     17          1           0        2.553694   -2.702635    0.781553
     18          1           0        3.127425   -1.508210    1.958905
     19          1           0        3.611497   -2.007329   -1.263977
     20          1           0        3.735461   -0.254075   -1.586524
     21          1           0        4.641818   -0.985156   -0.235509
     22          6           0       -1.028455   -0.145694   -0.622866
     23          1           0       -1.625406    0.198078   -1.468431
     24          1           0       -0.195393   -0.715258   -1.045469
     25          6           0       -1.878979   -1.082081    0.240970
     26          1           0       -2.754823   -0.542430    0.639224
     27          1           0       -1.300163   -1.437417    1.111316
     28          8           0       -2.275358   -2.163911   -0.574857
     29          6           0       -3.091520   -3.098537    0.100864
     30          1           0       -3.338773   -3.888214   -0.612108
     31          1           0       -2.572424   -3.546662    0.962690
     32          1           0       -4.024976   -2.639965    0.462368
 ---------------------------------------------------------------------
 Rotational constants (GHZ):      0.6532230      0.4859504      0.3148817
 Standard basis: 6-31G(d,p) (6D, 7F)
 There are   300 symmetry adapted basis functions of A   symmetry.
 Integral buffers will be    131072 words long.
 Raffenetti 2 integral format.
 Two-electron integral symmetry is turned on.
   300 basis functions,   518 primitive gaussians,   300 cartesian basis functions
    55 alpha electrons       55 beta electrons
       nuclear repulsion energy       966.8712791313 Hartrees.
 NAtoms=   32 NActive=   32 NUniq=   32 SFac= 1.00D+00 NAtFMM=   60 NAOKFM=F Big=F
 One-electron integrals computed using PRISM.
 NBasis=   300 RedAO= T  NBF=   300
 NBsUse=   300 1.00D-06 NBFU=   300
 Initial guess read from the read-write file.
 B after Tr=     0.000000    0.000000    0.000000
         Rot=    1.000000    0.000000    0.000000    0.000000 Ang=   0.00 deg.
 Initial guess orbital symmetries:
       Occupied  (A) (A) (A) (A) (A) (A) (A) (A) (A) (A) (A) (A)
                 (A) (A) (A) (A) (A) (A) (A) (A) (A) (A) (A) (A)
                 (A) (A) (A) (A) (A) (A) (A) (A) (A) (A) (A) (A)
                 (A) (A) (A) (A) (A) (A) (A) (A) (A) (A) (A) (A)
                 (A) (A) (A) (A) (A) (A) (A)
       Virtual   (A) (A) (A) (A) (A) (A) (A) (A) (A) (A) (A) (A)
                 (A) (A) (A) (A) (A) (A) (A) (A) (A) (A) (A) (A)
                 (A) (A) (A) (A) (A) (A) (A) (A) (A) (A) (A) (A)
                 (A) (A) (A) (A) (A) (A) (A) (A) (A) (A) (A) (A)
                 (A) (A) (A) (A) (A) (A) (A) (A) (A) (A) (A) (A)
                 (A) (A) (A) (A) (A) (A) (A) (A) (A) (A) (A) (A)
                 (A) (A) (A) (A) (A) (A) (A) (A) (A) (A) (A) (A)
                 (A) (A) (A) (A) (A) (A) (A) (A) (A) (A) (A) (A)
                 (A) (A) (A) (A) (A) (A) (A) (A) (A) (A) (A) (A)
                 (A) (A) (A) (A) (A) (A) (A) (A) (A) (A) (A) (A)
                 (A) (A) (A) (A) (A) (A) (A) (A) (A) (A) (A) (A)
                 (A) (A) (A) (A) (A) (A) (A) (A) (A) (A) (A) (A)
                 (A) (A) (A) (A) (A) (A) (A) (A) (A) (A) (A) (A)
                 (A) (A) (A) (A) (A) (A) (A) (A) (A) (A) (A) (A)
                 (A) (A) (A) (A) (A) (A) (A) (A) (A) (A) (A) (A)
                 (A) (A) (A) (A) (A) (A) (A) (A) (A) (A) (A) (A)
                 (A) (A) (A) (A) (A) (A) (A) (A) (A) (A) (A) (A)
                 (A) (A) (A) (A) (A) (A) (A) (A) (A) (A) (A) (A)
                 (A) (A) (A) (A) (A) (A) (A) (A) (A) (A) (A) (A)
                 (A) (A) (A) (A) (A) (A) (A) (A) (A) (A) (A) (A)
                 (A) (A) (A) (A) (A)
