 Entering Gaussian System, Link 0=/data/opt/apps/g09-C01/g09
 Initial command:
 /data/opt/apps/g09-C01/l1.exe /tmp/g09-tuu61186-3073249c21e64fea8x/Gau-3073376.inp -scrdir=/tmp/g09-tuu61186-3073249c21e64fea8x/
 Entering Link 1 = /data/opt/apps/g09-C01/l1.exe PID=   3073384.
  
 Copyright (c) 1988,1990,1992,1993,1995,1998,2003,2009,2011,
            Gaussian, Inc.  All Rights Reserved.
  
 This is part of the Gaussian(R) 09 program.  It is based on
 the Gaussian(R) 03 system (copyright 2003, Gaussian, Inc.),
 the Gaussian(R) 98 system (copyright 1998, Gaussian, Inc.),
 the Gaussian(R) 94 system (copyright 1995, Gaussian, Inc.),
 the Gaussian 92(TM) system (copyright 1992, Gaussian, Inc.),
 the Gaussian 90(TM) system (copyright 1990, Gaussian, Inc.),
 the Gaussian 88(TM) system (copyright 1988, Gaussian, Inc.),
 the Gaussian 86(TM) system (copyright 1986, Carnegie Mellon
 University), and the Gaussian 82(TM) system (copyright 1983,
 Carnegie Mellon University). Gaussian is a federally registered
 trademark of Gaussian, Inc.
  
 This software contains proprietary and confidential information,
 including trade secrets, belonging to Gaussian, Inc.
  
 This software is provided under written license and may be
 used, copied, transmitted, or stored only in accord with that
 written license.
  
 The following legend is applicable only to US Government
 contracts under FAR:
  
                    RESTRICTED RIGHTS LEGEND
  
 Use, reproduction and disclosure by the US Government is
 subject to restrictions as set forth in subparagraphs (a)
 and (c) of the Commercial Computer Software - Restricted
 Rights clause in FAR 52.227-19.
  
 Gaussian, Inc.
 340 Quinnipiac St., Bldg. 40, Wallingford CT 06492
  
  
 ---------------------------------------------------------------
 Warning -- This program may not be used in any manner that
 competes with the business of Gaussian, Inc. or will provide
 assistance to any competitor of Gaussian, Inc.  The licensee
 of this program is prohibited from giving any competitor of
 Gaussian, Inc. access to this program.  By using this program,
 the user acknowledges that Gaussian, Inc. is engaged in the
 business of creating and licensing software in the field of
 computational chemistry and represents and warrants to the
 licensee that it is not a competitor of Gaussian, Inc. and that
 it will not use this program in any manner prohibited above.
 ---------------------------------------------------------------
  

 Cite this work as:
 Gaussian 09, Revision C.01,
 M. J. Frisch, G. W. Trucks, H. B. Schlegel, G. E. Scuseria, 
 M. A. Robb, J. R. Cheeseman, G. Scalmani, V. Barone, B. Mennucci, 
 G. A. Petersson, H. Nakatsuji, M. Caricato, X. Li, H. P. Hratchian, 
 A. F. Izmaylov, J. Bloino, G. Zheng, J. L. Sonnenberg, M. Hada, 
 M. Ehara, K. Toyota, R. Fukuda, J. Hasegawa, M. Ishida, T. Nakajima, 
 Y. Honda, O. Kitao, H. Nakai, T. Vreven, J. A. Montgomery, Jr., 
 J. E. Peralta, F. Ogliaro, M. Bearpark, J. J. Heyd, E. Brothers, 
 K. N. Kudin, V. N. Staroverov, T. Keith, R. Kobayashi, J. Normand, 
 K. Raghavachari, A. Rendell, J. C. Burant, S. S. Iyengar, J. Tomasi, 
 M. Cossi, N. Rega, J. M. Millam, M. Klene, J. E. Knox, J. B. Cross, 
 V. Bakken, C. Adamo, J. Jaramillo, R. Gomperts, R. E. Stratmann, 
 O. Yazyev, A. J. Austin, R. Cammi, C. Pomelli, J. W. Ochterski, 
 R. L. Martin, K. Morokuma, V. G. Zakrzewski, G. A. Voth, 
 P. Salvador, J. J. Dannenberg, S. Dapprich, A. D. Daniels, 
 O. Farkas, J. B. Foresman, J. V. Ortiz, J. Cioslowski, 
 and D. J. Fox, Gaussian, Inc., Wallingford CT, 2010.
 
 ******************************************
 Gaussian 09:  EM64L-G09RevC.01 23-Sep-2011
                24-Apr-2026 
 ******************************************
 %nprocshared=8
 Will use up to    8 processors via shared memory.
 %mem=14GB
 -----------------------------------
 # opt=modredundant b3lyp/6-31g(d,p)
 -----------------------------------
 1/14=-1,18=120,19=15,26=3,38=1/1,3;
 2/9=110,12=2,17=6,18=5,40=1/2;
 3/5=1,6=6,7=101,11=2,16=1,25=1,30=1,71=1,74=-5/1,2,3;
 4//1;
 5/5=2,38=5/2;
 6/7=2,8=2,9=2,10=2,28=1/1;
 7//1,2,3,16;
 1/14=-1,18=20,19=15/3(2);
 2/9=110/2;
 99//99;
 2/9=110/2;
 3/5=1,6=6,7=101,11=2,16=1,25=1,30=1,71=1,74=-5/1,2,3;
 4/5=5,16=3/1;
 5/5=2,38=5/2;
 7//1,2,3,16;
 1/14=-1,18=20,19=15/3(-5);
 2/9=110/2;
 6/7=2,8=2,9=2,10=2,19=2,28=1/1;
 99/9=1/99;
 ---------------
 QM dihedral opt
 ---------------
 Charge =  0 Multiplicity = 1
 Symbolic Z-Matrix:
 C                     2.78843   2.26225   0.33 
 C                     1.31539   2.13864  -0.03391 
 O                     0.7493    3.02829  -0.66422 
 N                     0.6222    1.02529   0.41018 
 C                    -0.75499   0.97708  -0.09678 
 C                    -1.66549  -0.09978   0.49708 
 O                    -1.39833  -0.7062    1.53148 
 N                    -2.83371  -0.34099  -0.19087 
 C                    -3.3722    0.46955  -1.27406 
 C                    -3.7695   -1.31331   0.36139 
 H                     3.12118   3.23957  -0.01817 
 H                     3.39921   1.49003  -0.14804 
 H                     2.94654   2.19116   1.41045 
 H                    -1.20161   1.95809   0.09313 
 H                    -0.73252   0.8813   -1.18945 
 H                    -2.62996   1.14958  -1.68537 
 H                    -3.72447  -0.17944  -2.08446 
 H                    -4.22638   1.06739  -0.92712 
 H                    -4.12999  -1.97224  -0.43636 
 H                    -3.25893  -1.89762   1.12376 
 H                    -4.63604  -0.8138    0.81491 
 C                     1.33124  -0.19831   0.80641 
 H                     2.25615   0.08147   1.31051 
 H                     0.71531  -0.74456   1.51603 
 C                     1.67402  -1.10533  -0.37902 
 H                     2.24848  -0.54956  -1.14158 
 H                     0.75246  -1.46627  -0.8672 
 O                     2.42605  -2.18882   0.1265 
 C                     2.75521  -3.1422   -0.86138 
 H                     3.32853  -3.93269  -0.37163 
 H                     1.85588  -3.58542  -1.3172 
 H                     3.36796  -2.70481  -1.66562 
 
 The following ModRedundant input section has been read:
 D       2       4       5       6 F                                           
 D       4       5       6       8 S  36 10.000                                

 GradGradGradGradGradGradGradGradGradGradGradGradGradGradGradGradGradGrad
 Berny optimization.
 Initialization pass.
                           ----------------------------
                           !    Initial Parameters    !
                           ! (Angstroms and Degrees)  !
 --------------------------                            --------------------------
 ! Name  Definition              Value          Derivative Info.                !
 --------------------------------------------------------------------------------
 ! R1    R(1,2)                  1.5223         estimate D2E/DX2                !
 ! R2    R(1,11)                 1.0895         estimate D2E/DX2                !
 ! R3    R(1,12)                 1.0945         estimate D2E/DX2                !
 ! R4    R(1,13)                 1.0943         estimate D2E/DX2                !
 ! R5    R(2,3)                  1.2285         estimate D2E/DX2                !
 ! R6    R(2,4)                  1.3847         estimate D2E/DX2                !
 ! R7    R(4,5)                  1.4683         estimate D2E/DX2                !
 ! R8    R(4,22)                 1.4687         estimate D2E/DX2                !
 ! R9    R(5,6)                  1.5301         estimate D2E/DX2                !
 ! R10   R(5,14)                 1.0945         estimate D2E/DX2                !
 ! R11   R(5,15)                 1.0971         estimate D2E/DX2                !
 ! R12   R(6,7)                  1.2285         estimate D2E/DX2                !
 ! R13   R(6,8)                  1.377          estimate D2E/DX2                !
 ! R14   R(8,9)                  1.4561         estimate D2E/DX2                !
 ! R15   R(8,10)                 1.4581         estimate D2E/DX2                !
 ! R16   R(9,16)                 1.0874         estimate D2E/DX2                !
 ! R17   R(9,17)                 1.0964         estimate D2E/DX2                !
 ! R18   R(9,18)                 1.0988         estimate D2E/DX2                !
 ! R19   R(10,19)                1.0957         estimate D2E/DX2                !
 ! R20   R(10,20)                1.0878         estimate D2E/DX2                !
 ! R21   R(10,21)                1.0982         estimate D2E/DX2                !
 ! R22   R(22,23)                1.0899         estimate D2E/DX2                !
 ! R23   R(22,24)                1.0869         estimate D2E/DX2                !
 ! R24   R(22,25)                1.5315         estimate D2E/DX2                !
 ! R25   R(25,26)                1.1047         estimate D2E/DX2                !
 ! R26   R(25,27)                1.1036         estimate D2E/DX2                !
 ! R27   R(25,28)                1.4125         estimate D2E/DX2                !
 ! R28   R(28,29)                1.4118         estimate D2E/DX2                !
 ! R29   R(29,30)                1.0924         estimate D2E/DX2                !
 ! R30   R(29,31)                1.1014         estimate D2E/DX2                !
 ! R31   R(29,32)                1.1016         estimate D2E/DX2                !
 ! A1    A(2,1,11)             106.9754         estimate D2E/DX2                !
 ! A2    A(2,1,12)             112.2272         estimate D2E/DX2                !
 ! A3    A(2,1,13)             111.7501         estimate D2E/DX2                !
 ! A4    A(11,1,12)            108.8376         estimate D2E/DX2                !
 ! A5    A(11,1,13)            109.2483         estimate D2E/DX2                !
 ! A6    A(12,1,13)            107.7449         estimate D2E/DX2                !
 ! A7    A(1,2,3)              120.6449         estimate D2E/DX2                !
 ! A8    A(1,2,4)              118.231          estimate D2E/DX2                !
 ! A9    A(3,2,4)              121.074          estimate D2E/DX2                !
 ! A10   A(2,4,5)              112.6573         estimate D2E/DX2                !
 ! A11   A(2,4,22)             120.9797         estimate D2E/DX2                !
 ! A12   A(5,4,22)             121.2392         estimate D2E/DX2                !
 ! A13   A(4,5,6)              116.5655         estimate D2E/DX2                !
 ! A14   A(4,5,14)             107.0611         estimate D2E/DX2                !
 ! A15   A(4,5,15)             109.1187         estimate D2E/DX2                !
 ! A16   A(6,5,14)             108.702          estimate D2E/DX2                !
 ! A17   A(6,5,15)             109.712          estimate D2E/DX2                !
 ! A18   A(14,5,15)            105.0359         estimate D2E/DX2                !
 ! A19   A(5,6,7)              123.011          estimate D2E/DX2                !
 ! A20   A(5,6,8)              115.734          estimate D2E/DX2                !
 ! A21   A(7,6,8)              121.2458         estimate D2E/DX2                !
 ! A22   A(6,8,9)              126.0066         estimate D2E/DX2                !
 ! A23   A(6,8,10)             118.1675         estimate D2E/DX2                !
 ! A24   A(9,8,10)             114.5572         estimate D2E/DX2                !
 ! A25   A(8,9,16)             112.1508         estimate D2E/DX2                !
 ! A26   A(8,9,17)             109.8273         estimate D2E/DX2                !
 ! A27   A(8,9,18)             110.8214         estimate D2E/DX2                !
 ! A28   A(16,9,17)            108.0536         estimate D2E/DX2                !
 ! A29   A(16,9,18)            108.0459         estimate D2E/DX2                !
 ! A30   A(17,9,18)            107.7986         estimate D2E/DX2                !
 ! A31   A(8,10,19)            109.6586         estimate D2E/DX2                !
 ! A32   A(8,10,20)            108.808          estimate D2E/DX2                !
 ! A33   A(8,10,21)            111.069          estimate D2E/DX2                !
 ! A34   A(19,10,20)           109.9783         estimate D2E/DX2                !
 ! A35   A(19,10,21)           108.3365         estimate D2E/DX2                !
 ! A36   A(20,10,21)           108.9805         estimate D2E/DX2                !
 ! A37   A(4,22,23)            108.7001         estimate D2E/DX2                !
 ! A38   A(4,22,24)            108.7403         estimate D2E/DX2                !
 ! A39   A(4,22,25)            113.1198         estimate D2E/DX2                !
 ! A40   A(23,22,24)           107.9359         estimate D2E/DX2                !
 ! A41   A(23,22,25)           108.6697         estimate D2E/DX2                !
 ! A42   A(24,22,25)           109.545          estimate D2E/DX2                !
 ! A43   A(22,25,26)           110.655          estimate D2E/DX2                !
 ! A44   A(22,25,27)           110.4392         estimate D2E/DX2                !
 ! A45   A(22,25,28)           107.2445         estimate D2E/DX2                !
 ! A46   A(26,25,27)           107.0639         estimate D2E/DX2                !
 ! A47   A(26,25,28)           110.8606         estimate D2E/DX2                !
 ! A48   A(27,25,28)           110.6122         estimate D2E/DX2                !
 ! A49   A(25,28,29)           113.0613         estimate D2E/DX2                !
 ! A50   A(28,29,30)           107.2955         estimate D2E/DX2                !
 ! A51   A(28,29,31)           111.7759         estimate D2E/DX2                !
 ! A52   A(28,29,32)           111.8635         estimate D2E/DX2                !
 ! A53   A(30,29,31)           108.8372         estimate D2E/DX2                !
 ! A54   A(30,29,32)           108.8249         estimate D2E/DX2                !
 ! A55   A(31,29,32)           108.1695         estimate D2E/DX2                !
 ! D1    D(11,1,2,3)             3.1381         estimate D2E/DX2                !
 ! D2    D(11,1,2,4)          -174.3174         estimate D2E/DX2                !
 ! D3    D(12,1,2,3)          -116.1657         estimate D2E/DX2                !
 ! D4    D(12,1,2,4)            66.3788         estimate D2E/DX2                !
 ! D5    D(13,1,2,3)           122.6685         estimate D2E/DX2                !
 ! D6    D(13,1,2,4)           -54.787          estimate D2E/DX2                !
 ! D7    D(1,2,4,5)           -175.4852         estimate D2E/DX2                !
 ! D8    D(1,2,4,22)           -20.5125         estimate D2E/DX2                !
 ! D9    D(3,2,4,5)              7.0707         estimate D2E/DX2                !
 ! D10   D(3,2,4,22)           162.0434         estimate D2E/DX2                !
 ! D11   D(2,4,5,6)           -171.33           Frozen                          !
 ! D12   D(2,4,5,14)           -49.4292         estimate D2E/DX2                !
 ! D13   D(2,4,5,15)            63.749          estimate D2E/DX2                !
 ! D14   D(22,4,5,6)            33.7705         estimate D2E/DX2                !
 ! D15   D(22,4,5,14)          155.6712         estimate D2E/DX2                !
 ! D16   D(22,4,5,15)          -91.1505         estimate D2E/DX2                !
 ! D17   D(2,4,22,23)           37.0728         estimate D2E/DX2                !
 ! D18   D(2,4,22,24)          154.3408         estimate D2E/DX2                !
 ! D19   D(2,4,22,25)          -83.7229         estimate D2E/DX2                !
 ! D20   D(5,4,22,23)         -170.0953         estimate D2E/DX2                !
 ! D21   D(5,4,22,24)          -52.8273         estimate D2E/DX2                !
 ! D22   D(5,4,22,25)           69.1089         estimate D2E/DX2                !
 ! D23   D(4,5,6,7)             15.6743         estimate D2E/DX2                !
 ! D24   D(4,5,6,8)           -165.4208         Scan                            !
 ! D25   D(14,5,6,7)          -105.3613         estimate D2E/DX2                !
 ! D26   D(14,5,6,8)            73.5436         estimate D2E/DX2                !
 ! D27   D(15,5,6,7)           140.2941         estimate D2E/DX2                !
 ! D28   D(15,5,6,8)           -40.801          estimate D2E/DX2                !
 ! D29   D(5,6,8,9)            -10.8615         estimate D2E/DX2                !
 ! D30   D(5,6,8,10)          -177.2477         estimate D2E/DX2                !
 ! D31   D(7,6,8,9)            168.0644         estimate D2E/DX2                !
 ! D32   D(7,6,8,10)             1.6782         estimate D2E/DX2                !
 ! D33   D(6,8,9,16)            15.7004         estimate D2E/DX2                !
 ! D34   D(6,8,9,17)           135.8637         estimate D2E/DX2                !
 ! D35   D(6,8,9,18)          -105.1399         estimate D2E/DX2                !
 ! D36   D(10,8,9,16)         -177.487          estimate D2E/DX2                !
 ! D37   D(10,8,9,17)          -57.3237         estimate D2E/DX2                !
 ! D38   D(10,8,9,18)           61.6727         estimate D2E/DX2                !
 ! D39   D(6,8,10,19)         -135.2313         estimate D2E/DX2                !
 ! D40   D(6,8,10,20)          -14.9036         estimate D2E/DX2                !
 ! D41   D(6,8,10,21)          105.0577         estimate D2E/DX2                !
 ! D42   D(9,8,10,19)           56.8526         estimate D2E/DX2                !
 ! D43   D(9,8,10,20)          177.1802         estimate D2E/DX2                !
 ! D44   D(9,8,10,21)          -62.8584         estimate D2E/DX2                !
 ! D45   D(4,22,25,26)          55.0628         estimate D2E/DX2                !
 ! D46   D(4,22,25,27)         -63.3065         estimate D2E/DX2                !
 ! D47   D(4,22,25,28)         176.0925         estimate D2E/DX2                !
 ! D48   D(23,22,25,26)        -65.7502         estimate D2E/DX2                !
 ! D49   D(23,22,25,27)        175.8805         estimate D2E/DX2                !
 ! D50   D(23,22,25,28)         55.2795         estimate D2E/DX2                !
 ! D51   D(24,22,25,26)        176.5469         estimate D2E/DX2                !
 ! D52   D(24,22,25,27)         58.1776         estimate D2E/DX2                !
 ! D53   D(24,22,25,28)        -62.4234         estimate D2E/DX2                !
 ! D54   D(22,25,28,29)        177.1275         estimate D2E/DX2                !
 ! D55   D(26,25,28,29)        -61.9727         estimate D2E/DX2                !
 ! D56   D(27,25,28,29)         56.6363         estimate D2E/DX2                !
 ! D57   D(25,28,29,30)       -179.8411         estimate D2E/DX2                !
 ! D58   D(25,28,29,31)        -60.596          estimate D2E/DX2                !
 ! D59   D(25,28,29,32)         60.8779         estimate D2E/DX2                !
 --------------------------------------------------------------------------------
 Trust Radius=3.00D-01 FncErr=1.00D-07 GrdErr=1.00D-06
 Number of optimizations in scan=  37
 Number of steps in this run=    155 maximum allowed number of steps=    192.
 GradGradGradGradGradGradGradGradGradGradGradGradGradGradGradGradGradGrad

                          Input orientation:                          
 ---------------------------------------------------------------------
 Center     Atomic      Atomic             Coordinates (Angstroms)
 Number     Number       Type             X           Y           Z
 ---------------------------------------------------------------------
      1          6           0        2.788428    2.262247    0.329996
      2          6           0        1.315394    2.138636   -0.033914
      3          8           0        0.749298    3.028293   -0.664221
      4          7           0        0.622202    1.025291    0.410177
      5          6           0       -0.754994    0.977079   -0.096782
      6          6           0       -1.665493   -0.099781    0.497079
      7          8           0       -1.398327   -0.706195    1.531478
      8          7           0       -2.833710   -0.340985   -0.190870
      9          6           0       -3.372195    0.469548   -1.274064
     10          6           0       -3.769503   -1.313314    0.361388
     11          1           0        3.121181    3.239572   -0.018168
     12          1           0        3.399207    1.490027   -0.148035
     13          1           0        2.946537    2.191156    1.410450
     14          1           0       -1.201605    1.958086    0.093125
     15          1           0       -0.732523    0.881297   -1.189447
     16          1           0       -2.629959    1.149577   -1.685366
     17          1           0       -3.724465   -0.179437   -2.084459
     18          1           0       -4.226380    1.067389   -0.927122
     19          1           0       -4.129992   -1.972235   -0.436356
     20          1           0       -3.258927   -1.897619    1.123761
     21          1           0       -4.636043   -0.813798    0.814907
     22          6           0        1.331243   -0.198309    0.806409
     23          1           0        2.256145    0.081472    1.310505
     24          1           0        0.715305   -0.744564    1.516032
     25          6           0        1.674016   -1.105328   -0.379022
     26          1           0        2.248480   -0.549561   -1.141577
     27          1           0        0.752458   -1.466272   -0.867204
     28          8           0        2.426049   -2.188819    0.126495
     29          6           0        2.755205   -3.142202   -0.861384
     30          1           0        3.328526   -3.932691   -0.371626
     31          1           0        1.855880   -3.585422   -1.317203
     32          1           0        3.367956   -2.704813   -1.665619
 ---------------------------------------------------------------------
                    Distance matrix (angstroms):
                    1          2          3          4          5
     1  C    0.000000
     2  C    1.522347   0.000000
     3  O    2.394440   1.228512   0.000000
     4  N    2.495801   1.384655   2.276511   0.000000
     5  C    3.793367   2.374800   2.606216   1.468333   0.000000
     6  C    5.044255   3.765389   4.118820   2.550860   1.530133
     7  O    5.271065   4.231761   4.835265   2.887542   2.428687
     8  N    6.217439   4.836137   4.941057   3.764478   2.463170
     9  C    6.613626   5.128091   4.889355   4.370438   2.914330
    10  C    7.469410   6.158604   6.349881   4.975794   3.813540
    11  H    1.089544   2.114988   2.467357   3.366217   4.488851
    12  H    1.094481   2.185405   3.107206   2.870425   4.186064
    13  H    1.094273   2.179352   3.135748   2.786094   4.176968
    14  H    4.008614   2.526662   2.350519   2.072897   1.094487
    15  H    4.075883   2.666481   2.661061   2.101145   1.097085
    16  H    5.887159   4.389914   3.998961   3.870827   2.463503
    17  H    7.362689   5.914252   5.685170   5.154425   3.755815
    18  H    7.226034   5.714600   5.354590   5.029800   3.570454
    19  H    8.147556   6.834724   6.990327   5.682000   4.494928
    20  H    7.382754   6.209346   6.597527   4.910781   4.002911
    21  H    8.051084   6.697534   6.778745   5.585266   4.370464
    22  C    2.899085   2.483487   3.593379   1.468651   2.559233
    23  H    2.449592   2.631425   3.854074   2.090731   3.442314
    24  H    3.839978   3.327955   4.357649   2.089012   2.779749
    25  C    3.617345   3.281922   4.245382   2.503734   3.211879
    26  H    3.219213   3.053518   3.908511   2.744609   3.527475
    27  H    4.413651   3.742543   4.499147   2.802955   2.972529
    28  O    4.470427   4.470587   5.536694   3.696599   4.493528
    29  C    5.534307   5.535794   6.491344   4.851244   5.465765
    30  H    6.257894   6.405292   7.429221   5.702367   6.391910
    31  H    6.146393   5.890993   6.737369   5.075872   5.396527
    32  H    5.384238   5.507674   6.381902   5.075605   5.745981
                    6          7          8          9         10
     6  C    0.000000
     7  O    1.228453   0.000000
     8  N    1.377020   2.271604   0.000000
     9  C    2.524661   3.626237   1.456104   0.000000
    10  C    2.432680   2.712965   1.458122   2.451765   0.000000
    11  H    5.859096   6.196485   6.950607   7.170372   8.267670
    12  H    5.347415   5.537191   6.496437   6.939827   7.714184
    13  H    5.230054   5.223709   6.510547   7.077918   7.647682
    14  H    2.147833   3.034131   2.833751   2.965875   4.167508
    15  H    2.162711   3.219761   2.627949   2.672932   4.055201
    16  H    2.693354   3.912658   2.120568   1.087439   3.399058
    17  H    3.303036   4.331673   2.098862   1.096365   2.696270
    18  H    3.154168   4.145865   2.113082   1.098824   2.745313
    19  H    3.232822   3.596835   2.097996   2.690412   1.095685
    20  H    2.482737   2.246677   2.081387   3.371331   1.087802
    21  H    3.071645   3.317809   2.117438   2.758276   1.098220
    22  C    3.014269   2.869534   4.285062   5.186206   5.240123
    23  H    4.009209   3.744918   5.323459   6.205547   6.257370
    24  H    2.668747   2.114037   3.958775   5.095720   4.665853
    25  C    3.595970   3.639864   4.575939   5.361490   5.497578
    26  H    4.266929   4.524263   5.174553   5.713854   6.249667
    27  H    3.094358   3.310177   3.818940   4.574461   4.688386
    28  O    4.608918   4.335666   5.583930   6.530552   6.261513
    29  C    5.535731   5.376964   6.287478   7.124610   6.885624
    30  H    6.355004   6.031187   7.134856   8.068071   7.601346
    31  H    5.276493   5.195652   5.812680   6.616450   6.294845
    32  H    6.066223   6.077282   6.798767   7.460531   7.549063
                   11         12         13         14         15
    11  H    0.000000
    12  H    1.776252   0.000000
    13  H    1.780625   1.767871   0.000000
    14  H    4.510108   4.630843   4.358526   0.000000
    15  H    4.667375   4.304217   4.691554   1.739110   0.000000
    16  H    6.342179   6.231383   6.462683   2.420106   1.979438
    17  H    7.926036   7.568590   7.895338   3.959255   3.298169
    18  H    7.715648   7.676925   7.627440   3.314138   3.508630
    19  H    8.939649   8.292118   8.415568   4.929830   4.500287
    20  H    8.270460   7.577886   7.436939   4.490128   4.410898
    21  H    8.791948   8.414280   8.178016   4.472100   4.704067
    22  C    3.962680   2.835122   2.946792   3.402078   3.067266
    23  H    3.533731   2.327651   2.222025   4.118219   3.977640
    24  H    4.900546   3.868572   3.688902   3.606040   3.472643
    25  C    4.593763   3.124981   3.960849   4.228076   3.224112
    26  H    4.047368   2.543859   3.809417   4.440256   3.306966
    27  H    5.336354   4.032640   4.835129   4.057933   2.796442
    28  O    5.474629   3.815273   4.593869   5.509792   4.597161
    29  C    6.447635   4.730872   5.800219   6.525364   5.334830
    30  H    7.183960   5.427786   6.389305   7.445759   6.351018
    31  H    7.061800   5.432218   6.480623   6.485963   5.164081
    32  H    6.173387   4.461022   5.797440   6.761412   5.468167
                   16         17         18         19         20
    16  H    0.000000
    17  H    1.767342   0.000000
    18  H    1.769251   1.773675   0.000000
    19  H    3.681825   2.468769   3.080496   0.000000
    20  H    4.191921   3.668999   3.732741   1.788375   0.000000
    21  H    3.759066   3.104788   2.596412   1.778686   1.779468
    22  C    4.869996   5.823887   5.957709   5.875063   4.904898
    23  H    5.830103   6.881973   6.928357   6.931954   5.862397
    24  H    5.002750   5.744081   5.802795   5.366181   4.156673
    25  C    5.031434   5.736670   6.311560   5.868673   5.217280
    26  H    5.194415   6.058225   6.677150   6.573146   6.105780
    27  H    4.353481   4.814613   5.586757   4.927469   4.499023
    28  O    6.323839   6.837745   7.481164   6.583721   5.779125
    29  C    6.935294   7.229109   8.152761   6.996814   6.454423
    30  H    7.940964   8.171009   9.076672   7.712138   7.054944
    31  H    6.532879   6.582527   7.667770   6.261703   5.913395
    32  H    7.129635   7.540251   8.511688   7.633281   7.235177
                   21         22         23         24         25
    21  H    0.000000
    22  C    5.998950   0.000000
    23  H    6.967739   1.089878   0.000000
    24  H    5.397527   1.086894   1.760331   0.000000
    25  C    6.428631   1.531478   2.145197   2.154184   0.000000
    26  H    7.162004   2.181594   2.531989   3.074335   1.104706
    27  H    5.682531   2.178004   3.065779   2.490393   1.103572
    28  O    7.227568   2.371289   2.566119   2.635020   1.412464
    29  C    7.928554   3.670927   3.918959   3.944866   2.355950
    30  H    8.635376   4.395738   4.482529   4.533909   3.275888
    31  H    7.373795   4.032060   4.528926   4.171164   2.657842
    32  H    8.590282   4.067147   4.225733   4.582798   2.661413
                   26         27         28         29         30
    26  H    0.000000
    27  H    1.775872   0.000000
    28  O    2.080073   2.076155   0.000000
    29  C    2.656514   2.611469   1.411803   0.000000
    30  H    3.633854   3.600687   2.025754   1.092443   0.000000
    31  H    3.066175   2.431221   2.088027   1.101363   1.784208
    32  H    2.484544   3.002046   2.089285   1.101620   1.784281
                   31         32
    31  H    0.000000
    32  H    1.784164   0.000000
 Stoichiometry    C9H18N2O3
 Framework group  C1[X(C9H18N2O3)]
 Deg. of freedom    90
 Full point group                 C1      NOp   1
 Largest Abelian subgroup         C1      NOp   1
 Largest concise Abelian subgroup C1      NOp   1
                         Standard orientation:                         
 ---------------------------------------------------------------------
 Center     Atomic      Atomic             Coordinates (Angstroms)
 Number     Number       Type             X           Y           Z
 ---------------------------------------------------------------------
      1          6           0        2.788428   -2.262247   -0.329996
      2          6           0        1.315394   -2.138636    0.033914
      3          8           0        0.749298   -3.028293    0.664221
      4          7           0        0.622202   -1.025291   -0.410177
      5          6           0       -0.754994   -0.977079    0.096782
      6          6           0       -1.665493    0.099781   -0.497079
      7          8           0       -1.398327    0.706195   -1.531478
      8          7           0       -2.833710    0.340985    0.190870
      9          6           0       -3.372195   -0.469548    1.274064
     10          6           0       -3.769503    1.313314   -0.361388
     11          1           0        3.121181   -3.239572    0.018168
     12          1           0        3.399207   -1.490027    0.148035
     13          1           0        2.946537   -2.191156   -1.410450
     14          1           0       -1.201605   -1.958086   -0.093125
     15          1           0       -0.732523   -0.881297    1.189447
     16          1           0       -2.629959   -1.149577    1.685366
     17          1           0       -3.724465    0.179437    2.084459
     18          1           0       -4.226380   -1.067389    0.927122
     19          1           0       -4.129992    1.972235    0.436356
     20          1           0       -3.258927    1.897619   -1.123761
     21          1           0       -4.636043    0.813798   -0.814907
     22          6           0        1.331243    0.198309   -0.806409
     23          1           0        2.256145   -0.081472   -1.310505
     24          1           0        0.715305    0.744564   -1.516032
     25          6           0        1.674016    1.105328    0.379022
     26          1           0        2.248480    0.549561    1.141577
     27          1           0        0.752458    1.466272    0.867204
     28          8           0        2.426049    2.188819   -0.126495
     29          6           0        2.755205    3.142202    0.861384
     30          1           0        3.328526    3.932691    0.371626
     31          1           0        1.855880    3.585422    1.317203
     32          1           0        3.367956    2.704813    1.665619
 ---------------------------------------------------------------------
 Rotational constants (GHZ):      0.7017588      0.4459468      0.3115755
 Standard basis: 6-31G(d,p) (6D, 7F)
 There are   300 symmetry adapted basis functions of A   symmetry.
 Integral buffers will be    131072 words long.
 Raffenetti 2 integral format.
 Two-electron integral symmetry is turned on.
   300 basis functions,   518 primitive gaussians,   300 cartesian basis functions
    55 alpha electrons       55 beta electrons
       nuclear repulsion energy       965.1689351633 Hartrees.
 NAtoms=   32 NActive=   32 NUniq=   32 SFac= 1.00D+00 NAtFMM=   60 NAOKFM=F Big=F
 One-electron integrals computed using PRISM.
 NBasis=   300 RedAO= T  NBF=   300
 NBsUse=   300 1.00D-06 NBFU=   300
 Harris functional with IExCor=  402 diagonalized for initial guess.
 ExpMin= 1.61D-01 ExpMax= 5.48D+03 ExpMxC= 8.25D+02 IAcc=1 IRadAn=         1 AccDes= 0.00D+00
 HarFok:  IExCor=  402 AccDes= 0.00D+00 IRadAn=         1 IDoV= 1
 ScaDFX=  1.000000  1.000000  1.000000  1.000000
 FoFCou: FMM=F IPFlag=           0 FMFlag=      100000 FMFlg1=           0
         NFxFlg=           0 DoJE=T BraDBF=F KetDBF=T FulRan=T
         Omega=  0.000000  0.000000  1.000000  0.000000  0.000000 ICntrl=     500 IOpCl=  0
         NMat0=    1 NMatS0=    1 NMatT0=    0 NMatD0=    1 NMtDS0=    0 NMtDT0=    0
         I1Cent=           4 NGrid=           0.
 Petite list used in FoFCou.
 Initial guess orbital symmetries:
       Occupied  (A) (A) (A) (A) (A) (A) (A) (A) (A) (A) (A) (A)
                 (A) (A) (A) (A) (A) (A) (A) (A) (A) (A) (A) (A)
                 (A) (A) (A) (A) (A) (A) (A) (A) (A) (A) (A) (A)
                 (A) (A) (A) (A) (A) (A) (A) (A) (A) (A) (A) (A)
                 (A) (A) (A) (A) (A) (A) (A)
       Virtual   (A) (A) (A) (A) (A) (A) (A) (A) (A) (A) (A) (A)
                 (A) (A) (A) (A) (A) (A) (A) (A) (A) (A) (A) (A)
                 (A) (A) (A) (A) (A) (A) (A) (A) (A) (A) (A) (A)
                 (A) (A) (A) (A) (A) (A) (A) (A) (A) (A) (A) (A)
                 (A) (A) (A) (A) (A) (A) (A) (A) (A) (A) (A) (A)
                 (A) (A) (A) (A) (A) (A) (A) (A) (A) (A) (A) (A)
                 (A) (A) (A) (A) (A) (A) (A) (A) (A) (A) (A) (A)
                 (A) (A) (A) (A) (A) (A) (A) (A) (A) (A) (A) (A)
                 (A) (A) (A) (A) (A) (A) (A) (A) (A) (A) (A) (A)
                 (A) (A) (A) (A) (A) (A) (A) (A) (A) (A) (A) (A)
                 (A) (A) (A) (A) (A) (A) (A) (A) (A) (A) (A) (A)
                 (A) (A) (A) (A) (A) (A) (A) (A) (A) (A) (A) (A)
                 (A) (A) (A) (A) (A) (A) (A) (A) (A) (A) (A) (A)
                 (A) (A) (A) (A) (A) (A) (A) (A) (A) (A) (A) (A)
                 (A) (A) (A) (A) (A) (A) (A) (A) (A) (A) (A) (A)
                 (A) (A) (A) (A) (A) (A) (A) (A) (A) (A) (A) (A)
                 (A) (A) (A) (A) (A) (A) (A) (A) (A) (A) (A) (A)
                 (A) (A) (A) (A) (A) (A) (A) (A) (A) (A) (A) (A)
                 (A) (A) (A) (A) (A) (A) (A) (A) (A) (A) (A) (A)
                 (A) (A) (A) (A) (A) (A) (A) (A) (A) (A) (A) (A)
                 (A) (A) (A) (A) (A)
 The electronic state of the initial guess is 1-A.
 Requested convergence on RMS density matrix=1.00D-08 within 128 cycles.
 Requested convergence on MAX density matrix=1.00D-06.
 Requested convergence on             energy=1.00D-06.
 No special actions if energy rises.
 Keep R1 ints in memory in canonical form, NReq=1033484776.
 Integral accuracy reduced to 1.0D-05 until final iterations.
 Initial convergence to 1.0D-05 achieved.  Increase integral accuracy.
 SCF Done:  E(RB3LYP) =  -688.989393200     A.U. after   14 cycles
             Convg  =    0.6903D-08             -V/T =  2.0093

 **********************************************************************

            Population analysis using the SCF density.

 **********************************************************************

 Orbital symmetries:
       Occupied  (A) (A) (A) (A) (A) (A) (A) (A) (A) (A) (A) (A)
                 (A) (A) (A) (A) (A) (A) (A) (A) (A) (A) (A) (A)
                 (A) (A) (A) (A) (A) (A) (A) (A) (A) (A) (A) (A)
                 (A) (A) (A) (A) (A) (A) (A) (A) (A) (A) (A) (A)
                 (A) (A) (A) (A) (A) (A) (A)
       Virtual   (A) (A) (A) (A) (A) (A) (A) (A) (A) (A) (A) (A)
                 (A) (A) (A) (A) (A) (A) (A) (A) (A) (A) (A) (A)
                 (A) (A) (A) (A) (A) (A) (A) (A) (A) (A) (A) (A)
                 (A) (A) (A) (A) (A) (A) (A) (A) (A) (A) (A) (A)
                 (A) (A) (A) (A) (A) (A) (A) (A) (A) (A) (A) (A)
                 (A) (A) (A) (A) (A) (A) (A) (A) (A) (A) (A) (A)
                 (A) (A) (A) (A) (A) (A) (A) (A) (A) (A) (A) (A)
                 (A) (A) (A) (A) (A) (A) (A) (A) (A) (A) (A) (A)
                 (A) (A) (A) (A) (A) (A) (A) (A) (A) (A) (A) (A)
                 (A) (A) (A) (A) (A) (A) (A) (A) (A) (A) (A) (A)
                 (A) (A) (A) (A) (A) (A) (A) (A) (A) (A) (A) (A)
                 (A) (A) (A) (A) (A) (A) (A) (A) (A) (A) (A) (A)
                 (A) (A) (A) (A) (A) (A) (A) (A) (A) (A) (A) (A)
                 (A) (A) (A) (A) (A) (A) (A) (A) (A) (A) (A) (A)
                 (A) (A) (A) (A) (A) (A) (A) (A) (A) (A) (A) (A)
                 (A) (A) (A) (A) (A) (A) (A) (A) (A) (A) (A) (A)
                 (A) (A) (A) (A) (A) (A) (A) (A) (A) (A) (A) (A)
                 (A) (A) (A) (A) (A) (A) (A) (A) (A) (A) (A) (A)
                 (A) (A) (A) (A) (A) (A) (A) (A) (A) (A) (A) (A)
                 (A) (A) (A) (A) (A) (A) (A) (A) (A) (A) (A) (A)
                 (A) (A) (A) (A) (A)
 The electronic state is 1-A.
 Alpha  occ. eigenvalues --  -19.15146 -19.11704 -19.10688 -14.37241 -14.36191
 Alpha  occ. eigenvalues --  -10.29462 -10.28051 -10.23422 -10.23270 -10.23005
 Alpha  occ. eigenvalues --  -10.22985 -10.21703 -10.20986 -10.18677  -1.03976
 Alpha  occ. eigenvalues --   -1.03524  -1.02639  -0.93798  -0.92517  -0.77135
 Alpha  occ. eigenvalues --   -0.75013  -0.73153  -0.72012  -0.68390  -0.66576
 Alpha  occ. eigenvalues --   -0.61930  -0.56153  -0.53509  -0.51426  -0.49750
 Alpha  occ. eigenvalues --   -0.49173  -0.48149  -0.47544  -0.46609  -0.46250
 Alpha  occ. eigenvalues --   -0.45417  -0.43378  -0.42858  -0.41566  -0.41094
 Alpha  occ. eigenvalues --   -0.41032  -0.40643  -0.38939  -0.38833  -0.38550
 Alpha  occ. eigenvalues --   -0.37619  -0.36221  -0.35391  -0.34196  -0.32211
 Alpha  occ. eigenvalues --   -0.25969  -0.25694  -0.24892  -0.24336  -0.23274
 Alpha virt. eigenvalues --    0.01782   0.02697   0.07377   0.08586   0.09511
 Alpha virt. eigenvalues --    0.10993   0.11922   0.13268   0.13874   0.14348
 Alpha virt. eigenvalues --    0.14616   0.15217   0.15575   0.15968   0.16347
 Alpha virt. eigenvalues --    0.16947   0.17566   0.18589   0.18819   0.19268
 Alpha virt. eigenvalues --    0.20085   0.20853   0.21476   0.22397   0.23051
 Alpha virt. eigenvalues --    0.23340   0.26813   0.27339   0.29272   0.34403
 Alpha virt. eigenvalues --    0.35230   0.38098   0.39933   0.48358   0.49084
 Alpha virt. eigenvalues --    0.50255   0.50534   0.51342   0.51972   0.53451
 Alpha virt. eigenvalues --    0.53957   0.54779   0.56090   0.56298   0.58193
 Alpha virt. eigenvalues --    0.60095   0.60906   0.61617   0.64566   0.64891
 Alpha virt. eigenvalues --    0.66367   0.67759   0.68396   0.68612   0.71032
 Alpha virt. eigenvalues --    0.73496   0.74483   0.75063   0.76231   0.76794
 Alpha virt. eigenvalues --    0.78022   0.79656   0.80417   0.81437   0.83402
 Alpha virt. eigenvalues --    0.84220   0.84322   0.85376   0.85518   0.86190
 Alpha virt. eigenvalues --    0.86825   0.87980   0.88117   0.89046   0.90303
 Alpha virt. eigenvalues --    0.90924   0.91969   0.92514   0.92892   0.94594
 Alpha virt. eigenvalues --    0.95099   0.96495   0.98760   0.99373   1.00363
 Alpha virt. eigenvalues --    1.01890   1.04796   1.05146   1.08483   1.10929
 Alpha virt. eigenvalues --    1.12310   1.14153   1.18816   1.20663   1.22918
 Alpha virt. eigenvalues --    1.24756   1.27521   1.29209   1.29907   1.32747
 Alpha virt. eigenvalues --    1.34330   1.34937   1.37289   1.37532   1.39840
 Alpha virt. eigenvalues --    1.41007   1.44205   1.47239   1.48466   1.49340
 Alpha virt. eigenvalues --    1.56004   1.58974   1.61123   1.63788   1.67873
 Alpha virt. eigenvalues --    1.69295   1.70400   1.71780   1.72287   1.74268
 Alpha virt. eigenvalues --    1.75549   1.79382   1.79869   1.80138   1.82032
 Alpha virt. eigenvalues --    1.82432   1.85121   1.85532   1.87474   1.88228
 Alpha virt. eigenvalues --    1.89159   1.89906   1.90753   1.92252   1.94411
 Alpha virt. eigenvalues --    1.95509   1.95998   1.97691   1.98477   1.98952
 Alpha virt. eigenvalues --    2.00442   2.01295   2.02384   2.02735   2.02959
 Alpha virt. eigenvalues --    2.03208   2.03338   2.03789   2.04645   2.06848
 Alpha virt. eigenvalues --    2.07701   2.08457   2.10099   2.10770   2.11636
 Alpha virt. eigenvalues --    2.11936   2.14252   2.15885   2.17014   2.20880
 Alpha virt. eigenvalues --    2.22396   2.24221   2.25336   2.27260   2.28813
 Alpha virt. eigenvalues --    2.32010   2.33136   2.35051   2.39113   2.39699
 Alpha virt. eigenvalues --    2.41718   2.42943   2.47736   2.49882   2.52006
 Alpha virt. eigenvalues --    2.52441   2.52937   2.55588   2.56934   2.57404
 Alpha virt. eigenvalues --    2.58168   2.60395   2.60635   2.63071   2.65061
 Alpha virt. eigenvalues --    2.66480   2.67794   2.68695   2.69103   2.70626
 Alpha virt. eigenvalues --    2.71976   2.74376   2.74645   2.78394   2.79448
 Alpha virt. eigenvalues --    2.81141   2.83391   2.84063   2.85131   2.85916
 Alpha virt. eigenvalues --    2.87051   2.88170   2.90414   2.91604   2.94134
 Alpha virt. eigenvalues --    2.96280   2.98035   2.99693   3.04959   3.05780
 Alpha virt. eigenvalues --    3.10617   3.13546   3.15368   3.17489   3.17552
 Alpha virt. eigenvalues --    3.23071   3.26673   3.28059   3.33898   3.37253
 Alpha virt. eigenvalues --    3.37736   3.40909   3.41657   3.42673   3.43362
 Alpha virt. eigenvalues --    3.43873   3.44460   3.45408   3.47462   3.49207
 Alpha virt. eigenvalues --    3.56199   3.95506   4.00231   4.08506   4.15525
 Alpha virt. eigenvalues --    4.16992   4.31229   4.35965   4.42544   4.46460
 Alpha virt. eigenvalues --    4.48842   4.52300   4.58931   4.68094   4.73718
          Condensed to atoms (all electrons):
              1          2          3          4          5          6
     1  C    5.138590   0.360547  -0.078140  -0.121322   0.006359   0.000009
     2  C    0.360547   4.374595   0.575337   0.258983  -0.029442   0.005651
     3  O   -0.078140   0.575337   8.090408  -0.104038   0.004439   0.001458
     4  N   -0.121322   0.258983  -0.104038   7.116403   0.258957  -0.027285
     5  C    0.006359  -0.029442   0.004439   0.258957   5.046239   0.286631
     6  C    0.000009   0.005651   0.001458  -0.027285   0.286631   4.452171
     7  O   -0.000005  -0.000066  -0.000003   0.000732  -0.079065   0.554929
     8  N    0.000001  -0.000048   0.000001   0.002150  -0.107559   0.274842
     9  C    0.000000   0.000003  -0.000008   0.000361   0.000298  -0.027208
    10  C    0.000000   0.000002   0.000000  -0.000050   0.005442  -0.028358
    11  H    0.366736  -0.023338   0.005372   0.004691  -0.000115   0.000001
    12  H    0.363117  -0.021311   0.001507   0.000617  -0.000254  -0.000010
    13  H    0.363786  -0.022598   0.001479   0.003890  -0.000053  -0.000007
    14  H    0.000544  -0.005088   0.013545  -0.035995   0.373231  -0.019455
    15  H    0.000009  -0.005264   0.005216  -0.049351   0.372108  -0.039338
    16  H    0.000000   0.000005   0.000068   0.000026   0.006049  -0.009073
    17  H    0.000000   0.000000   0.000000  -0.000004  -0.000265   0.002000
    18  H    0.000000   0.000000   0.000000  -0.000010  -0.000310  -0.000262
    19  H    0.000000   0.000000   0.000000   0.000001  -0.000096   0.002624
    20  H    0.000000   0.000000   0.000000  -0.000005   0.000974  -0.003775
    21  H    0.000000   0.000000   0.000000   0.000000  -0.000137  -0.000516
    22  C    0.000196  -0.029994   0.002334   0.262631  -0.040899   0.000346
    23  H    0.008580  -0.011300   0.000088  -0.031999   0.004705   0.000046
    24  H   -0.000131   0.002708  -0.000096  -0.028462  -0.008351  -0.000327
    25  C   -0.002210  -0.001915   0.000089  -0.057411  -0.000822  -0.001821
    26  H   -0.000608   0.004261  -0.000197   0.003444  -0.000739   0.000073
    27  H    0.000092  -0.000557   0.000001  -0.000509   0.003549   0.001269
    28  O   -0.000006   0.000018   0.000000   0.002146  -0.000068   0.000014
    29  C    0.000000  -0.000005   0.000000  -0.000135   0.000002  -0.000002
    30  H    0.000000   0.000000   0.000000   0.000001   0.000000   0.000000
    31  H    0.000000   0.000000   0.000000   0.000007   0.000002  -0.000002
    32  H   -0.000001   0.000000   0.000000   0.000010   0.000000   0.000000
              7          8          9         10         11         12
     1  C   -0.000005   0.000001   0.000000   0.000000   0.366736   0.363117
     2  C   -0.000066  -0.000048   0.000003   0.000002  -0.023338  -0.021311
     3  O   -0.000003   0.000001  -0.000008   0.000000   0.005372   0.001507
     4  N    0.000732   0.002150   0.000361  -0.000050   0.004691   0.000617
     5  C   -0.079065  -0.107559   0.000298   0.005442  -0.000115  -0.000254
     6  C    0.554929   0.274842  -0.027208  -0.028358   0.000001  -0.000010
     7  O    8.110740  -0.093681   0.002659  -0.010872   0.000000   0.000000
     8  N   -0.093681   7.021993   0.296326   0.291289   0.000000   0.000000
     9  C    0.002659   0.296326   4.811312  -0.051663   0.000000   0.000000
    10  C   -0.010872   0.291289  -0.051663   4.816694   0.000000   0.000000
    11  H    0.000000   0.000000   0.000000   0.000000   0.550789  -0.023183
    12  H    0.000000   0.000000   0.000000   0.000000  -0.023183   0.577925
    13  H    0.000000   0.000000   0.000000   0.000000  -0.022121  -0.028929
    14  H   -0.000211  -0.001258   0.000779  -0.000234  -0.000008  -0.000015
    15  H    0.002087   0.005161  -0.006945  -0.000114  -0.000001   0.000034
    16  H    0.000039  -0.027883   0.386092   0.004351   0.000000   0.000000
    17  H   -0.000057  -0.043500   0.384742  -0.003417   0.000000   0.000000
    18  H    0.000029  -0.046595   0.383199  -0.001694   0.000000   0.000000
    19  H    0.000681  -0.044037  -0.002301   0.384466   0.000000   0.000000
    20  H    0.022068  -0.034162   0.004289   0.385068   0.000000   0.000000
    21  H    0.000891  -0.045928  -0.001723   0.388367   0.000000   0.000000
    22  C   -0.018427  -0.000360   0.000007   0.000003   0.000388  -0.000450
    23  H    0.000542  -0.000002   0.000000   0.000000   0.000129  -0.002639
    24  H    0.025293   0.000409  -0.000014   0.000005  -0.000005   0.000123
    25  C    0.000109   0.000002  -0.000004  -0.000001  -0.000011   0.000638
    26  H   -0.000010  -0.000001   0.000001   0.000000  -0.000032   0.002650
    27  H    0.000732  -0.000057  -0.000003  -0.000004   0.000001  -0.000058
    28  O   -0.000007   0.000000   0.000000   0.000000   0.000000  -0.000039
    29  C   -0.000001   0.000000   0.000000   0.000000   0.000000  -0.000001
    30  H    0.000000   0.000000   0.000000   0.000000   0.000000   0.000000
    31  H    0.000000   0.000000   0.000000   0.000000   0.000000   0.000000
    32  H    0.000000   0.000000   0.000000   0.000000   0.000000   0.000002
             13         14         15         16         17         18
     1  C    0.363786   0.000544   0.000009   0.000000   0.000000   0.000000
     2  C   -0.022598  -0.005088  -0.005264   0.000005   0.000000   0.000000
     3  O    0.001479   0.013545   0.005216   0.000068   0.000000   0.000000
     4  N    0.003890  -0.035995  -0.049351   0.000026  -0.000004  -0.000010
     5  C   -0.000053   0.373231   0.372108   0.006049  -0.000265  -0.000310
     6  C   -0.000007  -0.019455  -0.039338  -0.009073   0.002000  -0.000262
     7  O    0.000000  -0.000211   0.002087   0.000039  -0.000057   0.000029
     8  N    0.000000  -0.001258   0.005161  -0.027883  -0.043500  -0.046595
     9  C    0.000000   0.000779  -0.006945   0.386092   0.384742   0.383199
    10  C    0.000000  -0.000234  -0.000114   0.004351  -0.003417  -0.001694
    11  H   -0.022121  -0.000008  -0.000001   0.000000   0.000000   0.000000
    12  H   -0.028929  -0.000015   0.000034   0.000000   0.000000   0.000000
    13  H    0.570841  -0.000043  -0.000002   0.000000   0.000000   0.000000
    14  H   -0.000043   0.549515  -0.042881  -0.001225  -0.000023   0.000435
    15  H   -0.000002  -0.042881   0.628383   0.004139   0.000236   0.000205
    16  H    0.000000  -0.001225   0.004139   0.555572  -0.025744  -0.029845
    17  H    0.000000  -0.000023   0.000236  -0.025744   0.606327  -0.046388
    18  H    0.000000   0.000435   0.000205  -0.029845  -0.046388   0.612921
    19  H    0.000000  -0.000010   0.000005   0.000085   0.006708  -0.001882
    20  H    0.000000  -0.000019  -0.000044  -0.000228   0.000053  -0.000150
    21  H    0.000000   0.000053  -0.000012  -0.000084  -0.001980   0.007105
    22  C   -0.004352   0.003142   0.000275   0.000012   0.000001   0.000000
    23  H    0.001430  -0.000089  -0.000208   0.000000   0.000000   0.000000
    24  H    0.000099   0.000301  -0.000523  -0.000003   0.000001   0.000000
    25  C    0.000241  -0.000204   0.002942  -0.000001   0.000000   0.000000
    26  H    0.000070  -0.000007  -0.000149  -0.000001   0.000000   0.000000
    27  H   -0.000010   0.000084  -0.000429  -0.000011   0.000001   0.000000
    28  O   -0.000009   0.000000  -0.000022   0.000000   0.000000   0.000000
    29  C    0.000000   0.000000   0.000003   0.000000   0.000000   0.000000
    30  H    0.000000   0.000000   0.000000   0.000000   0.000000   0.000000
    31  H    0.000000   0.000000   0.000000   0.000000   0.000000   0.000000
    32  H    0.000000   0.000000   0.000000   0.000000   0.000000   0.000000
             19         20         21         22         23         24
     1  C    0.000000   0.000000   0.000000   0.000196   0.008580  -0.000131
     2  C    0.000000   0.000000   0.000000  -0.029994  -0.011300   0.002708
     3  O    0.000000   0.000000   0.000000   0.002334   0.000088  -0.000096
     4  N    0.000001  -0.000005   0.000000   0.262631  -0.031999  -0.028462
     5  C   -0.000096   0.000974  -0.000137  -0.040899   0.004705  -0.008351
     6  C    0.002624  -0.003775  -0.000516   0.000346   0.000046  -0.000327
     7  O    0.000681   0.022068   0.000891  -0.018427   0.000542   0.025293
     8  N   -0.044037  -0.034162  -0.045928  -0.000360  -0.000002   0.000409
     9  C   -0.002301   0.004289  -0.001723   0.000007   0.000000  -0.000014
    10  C    0.384466   0.385068   0.388367   0.000003   0.000000   0.000005
    11  H    0.000000   0.000000   0.000000   0.000388   0.000129  -0.000005
    12  H    0.000000   0.000000   0.000000  -0.000450  -0.002639   0.000123
    13  H    0.000000   0.000000   0.000000  -0.004352   0.001430   0.000099
    14  H   -0.000010  -0.000019   0.000053   0.003142  -0.000089   0.000301
    15  H    0.000005  -0.000044  -0.000012   0.000275  -0.000208  -0.000523
    16  H    0.000085  -0.000228  -0.000084   0.000012   0.000000  -0.000003
    17  H    0.006708   0.000053  -0.001980   0.000001   0.000000   0.000001
    18  H   -0.001882  -0.000150   0.007105   0.000000   0.000000   0.000000
    19  H    0.610452  -0.022507  -0.044281   0.000000   0.000000   0.000000
    20  H   -0.022507   0.514250  -0.027338   0.000012   0.000000  -0.000002
    21  H   -0.044281  -0.027338   0.610694   0.000000   0.000000  -0.000001
    22  C    0.000000   0.000012   0.000000   4.937768   0.371357   0.371651
    23  H    0.000000   0.000000   0.000000   0.371357   0.608577  -0.024957
    24  H    0.000000  -0.000002  -0.000001   0.371651  -0.024957   0.525988
    25  C    0.000000  -0.000002   0.000000   0.354306  -0.045453  -0.040914
    26  H    0.000000   0.000000   0.000000  -0.041737  -0.008303   0.006080
    27  H   -0.000002   0.000000   0.000000  -0.035524   0.006864  -0.008345
    28  O    0.000000   0.000000   0.000000  -0.039149   0.005618   0.005330
    29  C    0.000000   0.000000   0.000000   0.004389  -0.000127  -0.000111
    30  H    0.000000   0.000000   0.000000  -0.000245   0.000004   0.000009
    31  H    0.000000   0.000000   0.000000   0.000076   0.000058  -0.000067
    32  H    0.000000   0.000000   0.000000   0.000015  -0.000063   0.000042
             25         26         27         28         29         30
     1  C   -0.002210  -0.000608   0.000092  -0.000006   0.000000   0.000000
     2  C   -0.001915   0.004261  -0.000557   0.000018  -0.000005   0.000000
     3  O    0.000089  -0.000197   0.000001   0.000000   0.000000   0.000000
     4  N   -0.057411   0.003444  -0.000509   0.002146  -0.000135   0.000001
     5  C   -0.000822  -0.000739   0.003549  -0.000068   0.000002   0.000000
     6  C   -0.001821   0.000073   0.001269   0.000014  -0.000002   0.000000
     7  O    0.000109  -0.000010   0.000732  -0.000007  -0.000001   0.000000
     8  N    0.000002  -0.000001  -0.000057   0.000000   0.000000   0.000000
     9  C   -0.000004   0.000001  -0.000003   0.000000   0.000000   0.000000
    10  C   -0.000001   0.000000  -0.000004   0.000000   0.000000   0.000000
    11  H   -0.000011  -0.000032   0.000001   0.000000   0.000000   0.000000
    12  H    0.000638   0.002650  -0.000058  -0.000039  -0.000001   0.000000
    13  H    0.000241   0.000070  -0.000010  -0.000009   0.000000   0.000000
    14  H   -0.000204  -0.000007   0.000084   0.000000   0.000000   0.000000
    15  H    0.002942  -0.000149  -0.000429  -0.000022   0.000003   0.000000
    16  H   -0.000001  -0.000001  -0.000011   0.000000   0.000000   0.000000
    17  H    0.000000   0.000000   0.000001   0.000000   0.000000   0.000000
    18  H    0.000000   0.000000   0.000000   0.000000   0.000000   0.000000
    19  H    0.000000   0.000000  -0.000002   0.000000   0.000000   0.000000
    20  H   -0.000002   0.000000   0.000000   0.000000   0.000000   0.000000
    21  H    0.000000   0.000000   0.000000   0.000000   0.000000   0.000000
    22  C    0.354306  -0.041737  -0.035524  -0.039149   0.004389  -0.000245
    23  H   -0.045453  -0.008303   0.006864   0.005618  -0.000127   0.000004
    24  H   -0.040914   0.006080  -0.008345   0.005330  -0.000111   0.000009
    25  C    4.798471   0.357040   0.358689   0.234616  -0.033681   0.005507
    26  H    0.357040   0.701537  -0.063995  -0.039372  -0.006118  -0.000111
    27  H    0.358689  -0.063995   0.692782  -0.038675  -0.006920  -0.000103
    28  O    0.234616  -0.039372  -0.038675   8.198969   0.259236  -0.032931
    29  C   -0.033681  -0.006118  -0.006920   0.259236   4.708008   0.394560
    30  H    0.005507  -0.000111  -0.000103  -0.032931   0.394560   0.586205
    31  H   -0.009448  -0.002671   0.014061  -0.037614   0.370110  -0.034665
    32  H   -0.009206   0.013077  -0.002863  -0.037582   0.369238  -0.035402
             31         32
     1  C    0.000000  -0.000001
     2  C    0.000000   0.000000
     3  O    0.000000   0.000000
     4  N    0.000007   0.000010
     5  C    0.000002   0.000000
     6  C   -0.000002   0.000000
     7  O    0.000000   0.000000
     8  N    0.000000   0.000000
     9  C    0.000000   0.000000
    10  C    0.000000   0.000000
    11  H    0.000000   0.000000
    12  H    0.000000   0.000002
    13  H    0.000000   0.000000
    14  H    0.000000   0.000000
    15  H    0.000000   0.000000
    16  H    0.000000   0.000000
    17  H    0.000000   0.000000
    18  H    0.000000   0.000000
    19  H    0.000000   0.000000
    20  H    0.000000   0.000000
    21  H    0.000000   0.000000
    22  C    0.000076   0.000015
    23  H    0.000058  -0.000063
    24  H   -0.000067   0.000042
    25  C   -0.009448  -0.009206
    26  H   -0.002671   0.013077
    27  H    0.014061  -0.002863
    28  O   -0.037614  -0.037582
    29  C    0.370110   0.369238
    30  H   -0.034665  -0.035402
    31  H    0.661134  -0.053046
    32  H   -0.053046   0.665749
 Mulliken atomic charges:
              1
     1  C   -0.406143
     2  C    0.568817
     3  O   -0.518861
     4  N   -0.458473
     5  C   -0.100809
     6  C    0.575376
     7  O   -0.519128
     8  N   -0.447104
     9  C   -0.180200
    10  C   -0.179281
    11  H    0.140709
    12  H    0.130276
    13  H    0.136290
    14  H    0.165135
    15  H    0.124479
    16  H    0.137660
    17  H    0.121312
    18  H    0.123244
    19  H    0.110092
    20  H    0.161518
    21  H    0.114888
    22  C   -0.097772
    23  H    0.117140
    24  H    0.174270
    25  C    0.090454
    26  H    0.075819
    27  H    0.079940
    28  O   -0.480473
    29  C   -0.058442
    30  H    0.117172
    31  H    0.092067
    32  H    0.090029
 Sum of Mulliken atomic charges =   0.00000
 Mulliken charges with hydrogens summed into heavy atoms:
              1
     1  C    0.001132
     2  C    0.568817
     3  O   -0.518861
     4  N   -0.458473
     5  C    0.188805
     6  C    0.575376
     7  O   -0.519128
     8  N   -0.447104
     9  C    0.202016
    10  C    0.207217
    22  C    0.193638
    25  C    0.246213
    28  O   -0.480473
    29  C    0.240826
 Sum of Mulliken charges with hydrogens summed into heavy atoms =   0.00000
 Electronic spatial extent (au):  <R**2>=           3736.4116
 Charge=              0.0000 electrons
 Dipole moment (field-independent basis, Debye):
    X=             -1.3935    Y=              1.8641    Z=              2.3951  Tot=              3.3396
 Quadrupole moment (field-independent basis, Debye-Ang):
   XX=            -68.9349   YY=            -92.6943   ZZ=            -87.7358
   XY=              1.0124   XZ=             -3.4208   YZ=              8.1318
 Traceless Quadrupole moment (field-independent basis, Debye-Ang):
   XX=             14.1868   YY=             -9.5726   ZZ=             -4.6142
   XY=              1.0124   XZ=             -3.4208   YZ=              8.1318
 Octapole moment (field-independent basis, Debye-Ang**2):
  XXX=            -31.6382  YYY=             55.5686  ZZZ=              4.1283  XYY=              3.4343
  XXY=             -2.1146  XXZ=             12.3337  XZZ=              3.4381  YZZ=              0.5231
  YYZ=             -6.5519  XYZ=             11.4311
 Hexadecapole moment (field-independent basis, Debye-Ang**3):
 XXXX=          -2625.4152 YYYY=          -1681.2910 ZZZZ=           -403.5339 XXXY=            -18.2962
 XXXZ=              4.3159 YYYX=             62.5761 YYYZ=             54.6608 ZZZX=            -16.2379
 ZZZY=             -4.3286 XXYY=           -663.9873 XXZZ=           -521.0649 YYZZ=           -342.0076
 XXYZ=             16.9529 YYXZ=              9.2386 ZZXY=              8.4139
 N-N= 9.651689351633D+02 E-N=-3.536100789853D+03  KE= 6.826174859066D+02
 Calling FoFJK, ICntrl=      2127 FMM=F ISym2X=0 I1Cent= 0 IOpClX= 0 NMat=1 NMatS=1 NMatT=0.
 ***** Axes restored to original set *****
 -------------------------------------------------------------------
 Center     Atomic                   Forces (Hartrees/Bohr)
 Number     Number              X              Y              Z
 -------------------------------------------------------------------
      1        6          -0.000002400    0.000001374   -0.000001892
      2        6          -0.001219887    0.002016219    0.003114622
      3        8          -0.000000253   -0.000001748   -0.000000355
      4        7           0.001180190   -0.001658761   -0.003034038
      5        6           0.001075043   -0.002674958   -0.002698235
      6        6          -0.001031776    0.002317913    0.002621168
      7        8           0.000000506    0.000004498   -0.000003536
      8        7          -0.000010223   -0.000002978   -0.000007102
      9        6           0.000003591   -0.000004532    0.000005420
     10        6           0.000003252   -0.000005496   -0.000000234
     11        1          -0.000002725    0.000002744   -0.000002463
     12        1          -0.000001248    0.000002699   -0.000000698
     13        1          -0.000002651    0.000003409   -0.000001288
     14        1          -0.000001055   -0.000000657   -0.000001386
     15        1           0.000000708   -0.000002686    0.000000966
     16        1          -0.000002228   -0.000003468   -0.000001313
     17        1          -0.000000130   -0.000004459   -0.000000827
     18        1          -0.000001945   -0.000003408   -0.000001285
     19        1           0.000000238   -0.000003090    0.000001115
     20        1           0.000001216   -0.000000796    0.000001745
     21        1          -0.000000484   -0.000002396    0.000000213
     22        6          -0.000004955    0.000007917   -0.000003133
     23        1           0.000000693    0.000000933    0.000000269
     24        1           0.000001015    0.000001081    0.000001158
     25        6           0.000002879    0.000001564    0.000000457
     26        1           0.000000195    0.000001311   -0.000000270
     27        1           0.000000611   -0.000000422   -0.000000026
     28        8           0.000000373    0.000003515    0.000004528
     29        6           0.000003947   -0.000001109   -0.000001806
     30        1           0.000003153    0.000002786    0.000002945
     31        1           0.000002596    0.000001024    0.000002953
     32        1           0.000001755    0.000001979    0.000002329
 -------------------------------------------------------------------
 Cartesian Forces:  Max     0.003114622 RMS     0.000773950

 GradGradGradGradGradGradGradGradGradGradGradGradGradGradGradGradGradGrad
 Berny optimization.
 Internal  Forces:  Max     0.003631259 RMS     0.000485978
 Search for a local minimum.
 Step number   1 out of a maximum of  155 on scan point     1 out of    37
 All quantities printed in internal units (Hartrees-Bohrs-Radians)
 Mixed Optimization -- En-DIIS/RFO-DIIS
 Second derivative matrix not updated -- first step.
 ITU=  0
     Eigenvalues ---    0.00350   0.00470   0.00750   0.00784   0.00923
     Eigenvalues ---    0.00950   0.01048   0.01205   0.01310   0.01527
     Eigenvalues ---    0.01536   0.01895   0.01996   0.02563   0.04133
     Eigenvalues ---    0.05340   0.05456   0.05832   0.06258   0.06917
     Eigenvalues ---    0.07224   0.07463   0.07469   0.07481   0.07631
     Eigenvalues ---    0.09465   0.10036   0.10509   0.10610   0.11130
     Eigenvalues ---    0.11447   0.12886   0.13613   0.16000   0.16000
     Eigenvalues ---    0.16000   0.16000   0.16000   0.16000   0.16000
     Eigenvalues ---    0.16000   0.16000   0.16000   0.16000   0.16000
     Eigenvalues ---    0.21922   0.21993   0.22006   0.22278   0.23372
     Eigenvalues ---    0.24284   0.24632   0.24980   0.24995   0.25000
     Eigenvalues ---    0.25000   0.25000   0.29287   0.29411   0.30142
     Eigenvalues ---    0.33167   0.33290   0.33504   0.33532   0.33812
     Eigenvalues ---    0.33880   0.34007   0.34087   0.34164   0.34299
     Eigenvalues ---    0.34300   0.34323   0.34532   0.34827   0.34865
     Eigenvalues ---    0.35068   0.35110   0.35174   0.35902   0.35941
     Eigenvalues ---    0.37200   0.37456   0.43616   0.43719   0.48261
     Eigenvalues ---    0.49651   0.91709   0.917341000.000001000.00000
     Eigenvalues --- 1000.000001000.000001000.000001000.000001000.00000
     Eigenvalues --- 1000.000001000.000001000.000001000.000001000.00000
     Eigenvalues --- 1000.000001000.000001000.000001000.000001000.00000
     Eigenvalues --- 1000.000001000.000001000.000001000.000001000.00000
     Eigenvalues --- 1000.000001000.000001000.000001000.000001000.00000
     Eigenvalues --- 1000.000001000.000001000.000001000.000001000.00000
     Eigenvalues --- 1000.000001000.000001000.000001000.000001000.00000
     Eigenvalues --- 1000.000001000.000001000.000001000.000001000.00000
     Eigenvalues --- 1000.000001000.000001000.000001000.000001000.00000
     Eigenvalues --- 1000.000001000.000001000.000001000.000001000.00000
     Eigenvalues --- 1000.000001000.000001000.000001000.000001000.00000
 RFO step:  Lambda= 0.00000000D+00 EMin= 3.49559946D-03
 Linear search not attempted -- first point.
 Iteration  1 RMS(Cart)=  0.00005465 RMS(Int)=  0.00000000
 Iteration  2 RMS(Cart)=  0.00000000 RMS(Int)=  0.00000000
 Iteration  1 RMS(Cart)=  0.00000000 RMS(Int)=  0.00000000
 Variable       Old X    -DE/DX   Delta X   Delta X   Delta X     New X
                                 (Linear)    (Quad)   (Total)
    R1        2.87682   0.00000   0.00000   0.00000   0.00000   2.87682
    R2        2.05894   0.00000   0.00000   0.00000   0.00000   2.05894
    R3        2.06827   0.00000   0.00000   0.00000   0.00000   2.06827
    R4        2.06788   0.00000   0.00000   0.00000   0.00000   2.06788
    R5        2.32155   0.00000   0.00000   0.00000   0.00000   2.32155
    R6        2.61662   0.00001   0.00000   0.00002   0.00002   2.61664
    R7        2.77475   0.00000   0.00000   0.00001   0.00001   2.77476
    R8        2.77535   0.00000   0.00000  -0.00001  -0.00001   2.77534
    R9        2.89153   0.00000   0.00000   0.00000   0.00000   2.89153
   R10        2.06828   0.00000   0.00000   0.00000   0.00000   2.06828
   R11        2.07319   0.00000   0.00000   0.00000   0.00000   2.07319
   R12        2.32144  -0.00001   0.00000  -0.00001  -0.00001   2.32143
   R13        2.60219   0.00001   0.00000   0.00002   0.00002   2.60221
   R14        2.75164   0.00000   0.00000  -0.00001  -0.00001   2.75163
   R15        2.75545   0.00000   0.00000   0.00000   0.00000   2.75545
   R16        2.05496   0.00000   0.00000   0.00000   0.00000   2.05496
   R17        2.07183   0.00000   0.00000   0.00000   0.00000   2.07183
   R18        2.07648   0.00000   0.00000   0.00000   0.00000   2.07648
   R19        2.07054   0.00000   0.00000   0.00000   0.00000   2.07054
   R20        2.05565   0.00000   0.00000   0.00000   0.00000   2.05565
   R21        2.07534   0.00000   0.00000   0.00000   0.00000   2.07534
   R22        2.05957   0.00000   0.00000   0.00000   0.00000   2.05957
   R23        2.05393   0.00000   0.00000   0.00000   0.00000   2.05393
   R24        2.89407   0.00000   0.00000   0.00000   0.00000   2.89408
   R25        2.08759   0.00000   0.00000   0.00000   0.00000   2.08759
   R26        2.08545   0.00000   0.00000   0.00000   0.00000   2.08545
   R27        2.66917   0.00000   0.00000   0.00000   0.00000   2.66917
   R28        2.66792   0.00000   0.00000   0.00001   0.00001   2.66793
   R29        2.06442   0.00000   0.00000   0.00000   0.00000   2.06442
   R30        2.08127   0.00000   0.00000   0.00000   0.00000   2.08127
   R31        2.08176   0.00000   0.00000   0.00000   0.00000   2.08176
    A1        1.86707   0.00000   0.00000   0.00000   0.00000   1.86708
    A2        1.95873   0.00000   0.00000   0.00000   0.00000   1.95874
    A3        1.95041   0.00000   0.00000  -0.00001  -0.00001   1.95040
    A4        1.89957   0.00000   0.00000   0.00000   0.00000   1.89958
    A5        1.90674   0.00000   0.00000   0.00000   0.00000   1.90674
    A6        1.88050   0.00000   0.00000   0.00000   0.00000   1.88050
    A7        2.10565   0.00000   0.00000   0.00000   0.00000   2.10566
    A8        2.06352   0.00000   0.00000  -0.00002  -0.00002   2.06350
    A9        2.11314   0.00000   0.00000   0.00001   0.00001   2.11315
   A10        1.96624  -0.00024   0.00000   0.00002   0.00002   1.96626
   A11        2.11149   0.00088   0.00000   0.00000   0.00000   2.11149
   A12        2.11602  -0.00018   0.00000  -0.00002  -0.00002   2.11601
   A13        2.03445   0.00002   0.00000  -0.00002  -0.00002   2.03443
   A14        1.86857  -0.00015   0.00000   0.00001   0.00001   1.86858
   A15        1.90448   0.00012   0.00000  -0.00001  -0.00001   1.90447
   A16        1.89721  -0.00154   0.00000   0.00002   0.00002   1.89723
   A17        1.91483   0.00149   0.00000   0.00000   0.00000   1.91483
   A18        1.83322   0.00001   0.00000   0.00002   0.00002   1.83324
   A19        2.14695   0.00000   0.00000  -0.00001  -0.00001   2.14694
   A20        2.01994   0.00000   0.00000  -0.00001  -0.00001   2.01993
   A21        2.11614   0.00000   0.00000   0.00001   0.00001   2.11615
   A22        2.19923   0.00000   0.00000  -0.00001  -0.00001   2.19922
   A23        2.06241   0.00000   0.00000   0.00001   0.00001   2.06242
   A24        1.99940   0.00000   0.00000   0.00000   0.00000   1.99940
   A25        1.95740   0.00000   0.00000   0.00001   0.00001   1.95741
   A26        1.91685   0.00000   0.00000   0.00000   0.00000   1.91685
   A27        1.93420   0.00000   0.00000   0.00001   0.00001   1.93420
   A28        1.88589   0.00000   0.00000  -0.00001  -0.00001   1.88588
   A29        1.88576   0.00000   0.00000   0.00000   0.00000   1.88575
   A30        1.88144   0.00000   0.00000   0.00000   0.00000   1.88144
   A31        1.91390   0.00000   0.00000   0.00000   0.00000   1.91391
   A32        1.89906   0.00000   0.00000   0.00000   0.00000   1.89906
   A33        1.93852   0.00000   0.00000  -0.00001  -0.00001   1.93851
   A34        1.91948   0.00000   0.00000   0.00001   0.00001   1.91949
   A35        1.89083   0.00000   0.00000  -0.00001  -0.00001   1.89082
   A36        1.90207   0.00000   0.00000   0.00000   0.00000   1.90207
   A37        1.89717   0.00000   0.00000   0.00001   0.00001   1.89719
   A38        1.89788   0.00000   0.00000   0.00000   0.00000   1.89788
   A39        1.97431   0.00000   0.00000   0.00001   0.00001   1.97432
   A40        1.88384   0.00000   0.00000  -0.00001  -0.00001   1.88383
   A41        1.89664   0.00000   0.00000  -0.00002  -0.00002   1.89663
   A42        1.91192   0.00000   0.00000   0.00000   0.00000   1.91192
   A43        1.93129   0.00000   0.00000   0.00000   0.00000   1.93130
   A44        1.92753   0.00000   0.00000   0.00001   0.00001   1.92753
   A45        1.87177   0.00000   0.00000   0.00000   0.00000   1.87176
   A46        1.86862   0.00000   0.00000   0.00000   0.00000   1.86861
   A47        1.93488   0.00000   0.00000   0.00000   0.00000   1.93489
   A48        1.93055   0.00000   0.00000   0.00000   0.00000   1.93054
   A49        1.97329   0.00000   0.00000   0.00000   0.00000   1.97329
   A50        1.87266   0.00000   0.00000   0.00000   0.00000   1.87266
   A51        1.95086   0.00000   0.00000   0.00000   0.00000   1.95085
   A52        1.95239   0.00000   0.00000   0.00000   0.00000   1.95238
   A53        1.89957   0.00000   0.00000   0.00000   0.00000   1.89957
   A54        1.89935   0.00000   0.00000   0.00000   0.00000   1.89936
   A55        1.88791   0.00000   0.00000   0.00000   0.00000   1.88792
    D1        0.05477   0.00000   0.00000  -0.00005  -0.00005   0.05472
    D2       -3.04241   0.00000   0.00000  -0.00001  -0.00001  -3.04242
    D3       -2.02747   0.00000   0.00000  -0.00006  -0.00006  -2.02753
    D4        1.15853   0.00000   0.00000  -0.00001  -0.00001   1.15851
    D5        2.14097   0.00000   0.00000  -0.00005  -0.00005   2.14092
    D6       -0.95621   0.00000   0.00000  -0.00001  -0.00001  -0.95622
    D7       -3.06280  -0.00049   0.00000  -0.00005  -0.00005  -3.06284
    D8       -0.35801   0.00049   0.00000  -0.00006  -0.00006  -0.35807
    D9        0.12341  -0.00049   0.00000   0.00000   0.00000   0.12340
   D10        2.82819   0.00049   0.00000  -0.00002  -0.00002   2.82818
   D11       -2.99027   0.00363   0.00000   0.00000   0.00000  -2.99027
   D12       -0.86270   0.00151   0.00000   0.00002   0.00002  -0.86269
   D13        1.11263   0.00150   0.00000   0.00003   0.00003   1.11266
   D14        0.58941   0.00235   0.00000   0.00001   0.00001   0.58941
   D15        2.71698   0.00023   0.00000   0.00002   0.00002   2.71700
   D16       -1.59088   0.00022   0.00000   0.00004   0.00004  -1.59084
   D17        0.64704  -0.00054   0.00000   0.00005   0.00005   0.64709
   D18        2.69376  -0.00054   0.00000   0.00005   0.00005   2.69380
   D19       -1.46124  -0.00054   0.00000   0.00005   0.00005  -1.46119
   D20       -2.96872   0.00054   0.00000   0.00005   0.00005  -2.96868
   D21       -0.92201   0.00054   0.00000   0.00004   0.00004  -0.92197
   D22        1.20618   0.00054   0.00000   0.00005   0.00005   1.20623
   D23        0.27357  -0.00095   0.00000   0.00003   0.00003   0.27360
   D24       -2.88714  -0.00095   0.00000   0.00000   0.00000  -2.88714
   D25       -1.83890   0.00045   0.00000   0.00002   0.00002  -1.83888
   D26        1.28358   0.00045   0.00000  -0.00001  -0.00001   1.28357
   D27        2.44859   0.00049   0.00000  -0.00001  -0.00001   2.44858
   D28       -0.71211   0.00049   0.00000  -0.00004  -0.00004  -0.71215
   D29       -0.18957   0.00000   0.00000  -0.00002  -0.00002  -0.18959
   D30       -3.09356   0.00000   0.00000  -0.00002  -0.00002  -3.09357
   D31        2.93328   0.00000   0.00000  -0.00005  -0.00005   2.93323
   D32        0.02929   0.00000   0.00000  -0.00004  -0.00004   0.02925
   D33        0.27402   0.00000   0.00000  -0.00001  -0.00001   0.27402
   D34        2.37127   0.00000   0.00000  -0.00001  -0.00001   2.37126
   D35       -1.83504   0.00000   0.00000  -0.00001  -0.00001  -1.83505
   D36       -3.09773   0.00000   0.00000  -0.00001  -0.00001  -3.09775
   D37       -1.00049   0.00000   0.00000  -0.00002  -0.00002  -1.00050
   D38        1.07639   0.00000   0.00000  -0.00002  -0.00002   1.07637
   D39       -2.36023   0.00000   0.00000   0.00000   0.00000  -2.36023
   D40       -0.26012   0.00000   0.00000   0.00002   0.00002  -0.26010
   D41        1.83360   0.00000   0.00000   0.00002   0.00002   1.83362
   D42        0.99226   0.00000   0.00000   0.00001   0.00001   0.99228
   D43        3.09238   0.00000   0.00000   0.00003   0.00003   3.09241
   D44       -1.09709   0.00000   0.00000   0.00003   0.00003  -1.09706
   D45        0.96103   0.00000   0.00000   0.00003   0.00003   0.96106
   D46       -1.10491   0.00000   0.00000   0.00003   0.00003  -1.10488
   D47        3.07339   0.00000   0.00000   0.00003   0.00003   3.07343
   D48       -1.14756   0.00000   0.00000   0.00002   0.00002  -1.14754
   D49        3.06969   0.00000   0.00000   0.00002   0.00002   3.06971
   D50        0.96481   0.00000   0.00000   0.00002   0.00002   0.96483
   D51        3.08133   0.00000   0.00000   0.00004   0.00004   3.08137
   D52        1.01539   0.00000   0.00000   0.00004   0.00004   1.01543
   D53       -1.08949   0.00000   0.00000   0.00004   0.00004  -1.08945
   D54        3.09146   0.00000   0.00000   0.00001   0.00001   3.09146
   D55       -1.08163   0.00000   0.00000   0.00001   0.00001  -1.08162
   D56        0.98849   0.00000   0.00000   0.00000   0.00000   0.98849
   D57       -3.13882   0.00000   0.00000  -0.00001  -0.00001  -3.13883
   D58       -1.05760   0.00000   0.00000  -0.00001  -0.00001  -1.05761
   D59        1.06252   0.00000   0.00000  -0.00001  -0.00001   1.06251
         Item               Value     Threshold  Converged?
 Maximum Force            0.000010     0.000450     YES
 RMS     Force            0.000002     0.000300     YES
 Maximum Displacement     0.000199     0.001800     YES
 RMS     Displacement     0.000055     0.001200     YES
 Predicted change in Energy=-1.017091D-09
 Optimization completed.
    -- Stationary point found.
                           ----------------------------
                           !   Optimized Parameters   !
                           ! (Angstroms and Degrees)  !
 --------------------------                            --------------------------
 ! Name  Definition              Value          Derivative Info.                !
 --------------------------------------------------------------------------------
 ! R1    R(1,2)                  1.5223         -DE/DX =    0.0                 !
 ! R2    R(1,11)                 1.0895         -DE/DX =    0.0                 !
 ! R3    R(1,12)                 1.0945         -DE/DX =    0.0                 !
 ! R4    R(1,13)                 1.0943         -DE/DX =    0.0                 !
 ! R5    R(2,3)                  1.2285         -DE/DX =    0.0                 !
 ! R6    R(2,4)                  1.3847         -DE/DX =    0.0                 !
 ! R7    R(4,5)                  1.4683         -DE/DX =    0.0                 !
 ! R8    R(4,22)                 1.4687         -DE/DX =    0.0                 !
 ! R9    R(5,6)                  1.5301         -DE/DX =    0.0                 !
 ! R10   R(5,14)                 1.0945         -DE/DX =    0.0                 !
 ! R11   R(5,15)                 1.0971         -DE/DX =    0.0                 !
 ! R12   R(6,7)                  1.2285         -DE/DX =    0.0                 !
 ! R13   R(6,8)                  1.377          -DE/DX =    0.0                 !
 ! R14   R(8,9)                  1.4561         -DE/DX =    0.0                 !
 ! R15   R(8,10)                 1.4581         -DE/DX =    0.0                 !
 ! R16   R(9,16)                 1.0874         -DE/DX =    0.0                 !
 ! R17   R(9,17)                 1.0964         -DE/DX =    0.0                 !
 ! R18   R(9,18)                 1.0988         -DE/DX =    0.0                 !
 ! R19   R(10,19)                1.0957         -DE/DX =    0.0                 !
 ! R20   R(10,20)                1.0878         -DE/DX =    0.0                 !
 ! R21   R(10,21)                1.0982         -DE/DX =    0.0                 !
 ! R22   R(22,23)                1.0899         -DE/DX =    0.0                 !
 ! R23   R(22,24)                1.0869         -DE/DX =    0.0                 !
 ! R24   R(22,25)                1.5315         -DE/DX =    0.0                 !
 ! R25   R(25,26)                1.1047         -DE/DX =    0.0                 !
 ! R26   R(25,27)                1.1036         -DE/DX =    0.0                 !
 ! R27   R(25,28)                1.4125         -DE/DX =    0.0                 !
 ! R28   R(28,29)                1.4118         -DE/DX =    0.0                 !
 ! R29   R(29,30)                1.0924         -DE/DX =    0.0                 !
 ! R30   R(29,31)                1.1014         -DE/DX =    0.0                 !
 ! R31   R(29,32)                1.1016         -DE/DX =    0.0                 !
 ! A1    A(2,1,11)             106.9754         -DE/DX =    0.0                 !
 ! A2    A(2,1,12)             112.2272         -DE/DX =    0.0                 !
 ! A3    A(2,1,13)             111.7501         -DE/DX =    0.0                 !
 ! A4    A(11,1,12)            108.8376         -DE/DX =    0.0                 !
 ! A5    A(11,1,13)            109.2483         -DE/DX =    0.0                 !
 ! A6    A(12,1,13)            107.7449         -DE/DX =    0.0                 !
 ! A7    A(1,2,3)              120.6449         -DE/DX =    0.0                 !
 ! A8    A(1,2,4)              118.231          -DE/DX =    0.0                 !
 ! A9    A(3,2,4)              121.074          -DE/DX =    0.0                 !
 ! A10   A(2,4,5)              112.6573         -DE/DX =   -0.0002              !
 ! A11   A(2,4,22)             120.9797         -DE/DX =    0.0009              !
 ! A12   A(5,4,22)             121.2392         -DE/DX =   -0.0002              !
 ! A13   A(4,5,6)              116.5655         -DE/DX =    0.0                 !
 ! A14   A(4,5,14)             107.0611         -DE/DX =   -0.0002              !
 ! A15   A(4,5,15)             109.1187         -DE/DX =    0.0001              !
 ! A16   A(6,5,14)             108.702          -DE/DX =   -0.0015              !
[...]
   D22        1.38200   0.00008  -0.01389   0.01060  -0.00334   1.37866
   D23        0.99462  -0.00015  -0.00784   0.01243   0.00461   0.99922
   D24       -2.18901  -0.00001   0.00000   0.00000   0.00000  -2.18900
   D25       -1.06726  -0.00007  -0.00763   0.01273   0.00511  -1.06215
   D26        2.03230   0.00007   0.00021   0.00031   0.00051   2.03280
   D27       -3.07676  -0.00013  -0.01079   0.01644   0.00563  -3.07113
   D28        0.02279   0.00001  -0.00295   0.00401   0.00103   0.02382
   D29       -0.01621   0.00015  -0.00513   0.04980   0.04455   0.02834
   D30       -2.98318  -0.00012  -0.00571   0.00530  -0.00031  -2.98348
   D31        3.08228   0.00031   0.00295   0.03704   0.03987   3.12215
   D32        0.11531   0.00004   0.00236  -0.00746  -0.00498   0.11033
   D33        0.54627  -0.00014   0.02944   0.03581   0.06528   0.61155
   D34        2.61285  -0.00008   0.02821   0.03457   0.06282   2.67567
   D35       -1.59109  -0.00012   0.02816   0.03364   0.06183  -1.52926
   D36       -2.76502   0.00006   0.02959   0.07884   0.10840  -2.65662
   D37       -0.69844   0.00012   0.02836   0.07761   0.10593  -0.59251
   D38        1.38081   0.00008   0.02831   0.07667   0.10495   1.48575
   D39       -2.20943  -0.00001  -0.01343   0.05010   0.03680  -2.17263
   D40       -0.11237  -0.00005  -0.01503   0.04893   0.03403  -0.07834
   D41        1.98335   0.00000  -0.01450   0.04874   0.03437   2.01772
   D42        1.08617   0.00000  -0.01306   0.01178  -0.00140   1.08477
   D43       -3.09995  -0.00004  -0.01465   0.01061  -0.00417  -3.10413
   D44       -1.00424   0.00001  -0.01413   0.01042  -0.00383  -1.00807
   D45        0.98449  -0.00005  -0.00070  -0.00080  -0.00149   0.98300
   D46       -1.07828   0.00005  -0.00060   0.00021  -0.00039  -1.07867
   D47        3.09689  -0.00002  -0.00033  -0.00097  -0.00130   3.09559
   D48       -1.13171  -0.00001  -0.00018  -0.00068  -0.00086  -1.13257
   D49        3.08870   0.00009  -0.00008   0.00032   0.00024   3.08894
   D50        0.98069   0.00002   0.00018  -0.00086  -0.00068   0.98001
   D51        3.11448  -0.00009   0.00034  -0.00149  -0.00115   3.11332
   D52        1.05170   0.00001   0.00044  -0.00049  -0.00005   1.05165
   D53       -1.05631  -0.00005   0.00070  -0.00167  -0.00097  -1.05728
   D54        3.12312   0.00002   0.00350   0.00675   0.01026   3.13338
   D55       -1.05531   0.00007   0.00384   0.00635   0.01020  -1.04512
   D56        1.01924   0.00001   0.00367   0.00577   0.00943   1.02868
   D57       -3.13451  -0.00006  -0.00179  -0.00460  -0.00639  -3.14090
   D58       -1.05351  -0.00003  -0.00170  -0.00445  -0.00615  -1.05966
   D59        1.06659  -0.00005  -0.00163  -0.00470  -0.00633   1.06026
         Item               Value     Threshold  Converged?
 Maximum Force            0.001405     0.000450     NO 
 RMS     Force            0.000281     0.000300     YES
 Maximum Displacement     0.234723     0.001800     NO 
 RMS     Displacement     0.037969     0.001200     NO 
 Predicted change in Energy=-4.193894D-05
 GradGradGradGradGradGradGradGradGradGradGradGradGradGradGradGradGradGrad

                          Input orientation:                          
 ---------------------------------------------------------------------
 Center     Atomic      Atomic             Coordinates (Angstroms)
 Number     Number       Type             X           Y           Z
 ---------------------------------------------------------------------
      1          6           0        2.852209    2.257002    0.302809
      2          6           0        1.339332    2.313404    0.138781
      3          8           0        0.780426    3.344451   -0.227359
      4          7           0        0.607634    1.184408    0.431668
      5          6           0       -0.842623    1.344785    0.229801
      6          6           0       -1.679366    0.175207    0.747275
      7          8           0       -1.596611   -0.154509    1.929307
      8          7           0       -2.548297   -0.442645   -0.120395
      9          6           0       -2.738666   -0.113194   -1.528365
     10          6           0       -3.486342   -1.420233    0.424464
     11          1           0        3.244619    3.221756   -0.016903
     12          1           0        3.309952    1.466401   -0.299616
     13          1           0        3.136057    2.087305    1.346615
     14          1           0       -1.165453    2.216314    0.809513
     15          1           0       -1.038714    1.602037   -0.812146
     16          1           0       -1.807538    0.196607   -2.002007
     17          1           0       -3.088373   -1.009236   -2.049083
     18          1           0       -3.489175    0.675331   -1.673740
     19          1           0       -3.380747   -2.379281   -0.095468
     20          1           0       -3.268060   -1.552124    1.481930
     21          1           0       -4.519839   -1.072335    0.303357
     22          6           0        1.206516   -0.108225    0.755201
     23          1           0        2.189444    0.053439    1.198090
     24          1           0        0.595134   -0.607490    1.507551
     25          6           0        1.365900   -1.014833   -0.469129
     26          1           0        1.959839   -0.504821   -1.247823
     27          1           0        0.379782   -1.242092   -0.909858
     28          8           0        2.006015   -2.197418   -0.038713
     29          6           0        2.204374   -3.129867   -1.080229
     30          1           0        2.700907   -4.000785   -0.646395
     31          1           0        1.251107   -3.451188   -1.528867
     32          1           0        2.839951   -2.719848   -1.880906
 ---------------------------------------------------------------------
                    Distance matrix (angstroms):
                    1          2          3          4          5
     1  C    0.000000
     2  C    1.522788   0.000000
     3  O    2.399147   1.228614   0.000000
     4  N    2.491020   1.376879   2.264942   0.000000
     5  C    3.806475   2.389023   2.615712   1.472996   0.000000
     6  C    5.006655   3.748958   4.128510   2.519615   1.528343
     7  O    5.315344   4.232769   4.748077   2.982334   2.388452
     8  N    6.052492   4.772487   5.043207   3.593324   2.495369
     9  C    6.342626   5.029693   5.102150   4.089403   2.968472
    10  C    7.328990   6.108092   6.429028   4.852303   3.830467
    11  H    1.089473   2.116474   2.476205   3.362394   4.504378
    12  H    1.094301   2.189281   3.151316   2.813684   4.187952
    13  H    1.094942   2.176742   3.099485   2.836419   4.198631
    14  H    4.049693   2.594851   2.476740   2.086010   1.095376
    15  H    4.100169   2.658083   2.585973   2.105219   1.091001
    16  H    5.592017   4.355065   4.444756   3.568134   2.688929
    17  H    7.175669   5.952416   6.102531   4.962526   3.972169
    18  H    6.827999   5.411376   5.238866   4.634193   3.328044
    19  H    7.778399   6.659978   7.077702   5.374470   4.518467
    20  H    7.304619   6.162338   6.579389   4.859286   3.980283
    21  H    8.088979   6.769062   6.919717   5.603600   4.401114
    22  C    2.916722   2.502379   3.614962   1.460901   2.566369
    23  H    2.469105   2.636716   3.853310   2.090124   3.434907
    24  H    3.840717   3.310436   4.319963   2.090114   2.740651
    25  C    3.675583   3.383404   4.405064   2.494606   3.306640
    26  H    3.290662   3.201577   4.153223   2.739095   3.668543
    27  H    4.452765   3.829091   4.654321   2.781997   3.079778
    28  O    4.546927   4.563276   5.678905   3.689643   4.553464
    29  C    5.599183   5.644775   6.683698   4.842352   5.569819
    30  H    6.331175   6.506871   7.603705   5.694755   6.472978
    31  H    6.204997   6.001612   6.935140   5.074100   5.520686
    32  H    5.434869   5.627133   6.614498   5.057118   5.876876
                    6          7          8          9         10
     6  C    0.000000
     7  O    1.229943   0.000000
     8  N    1.374640   2.278159   0.000000
     9  C    2.526624   3.641633   1.458478   0.000000
    10  C    2.432037   2.727214   1.460301   2.465951   0.000000
    11  H    5.840467   6.214854   6.855394   7.014706   8.188328
    12  H    5.258940   5.627593   6.164062   6.371084   7.419337
    13  H    5.215709   5.269099   6.392546   6.900729   7.550454
    14  H    2.105730   2.657186   3.138001   3.656129   4.331197
    15  H    2.208636   3.303372   2.634025   2.518893   4.080957
    16  H    2.752351   3.952594   2.120809   1.089638   3.364568
    17  H    3.347809   4.333994   2.081477   1.093771   2.538845
    18  H    3.063797   4.153599   2.132605   1.098258   2.965445
    19  H    3.182817   3.497494   2.108116   2.756921   1.096016
    20  H    2.459134   2.224234   2.077606   3.378261   1.087785
    21  H    3.133961   3.468628   2.112594   2.729054   1.097185
    22  C    2.899777   3.039439   3.870029   4.558416   4.884022
    23  H    3.896890   3.861624   4.942742   5.634500   5.914792
    24  H    2.522693   2.277458   3.543803   4.536004   4.300241
    25  C    3.488477   3.907572   3.971139   4.333865   4.950465
    26  H    4.205552   4.781758   4.647391   4.723136   5.770217
    27  H    2.999153   3.626269   3.136242   3.373674   4.093784
    28  O    4.452994   4.585357   4.881358   5.392128   5.566375
    29  C    5.417262   5.688370   5.543494   5.808165   6.129535
    30  H    6.210315   6.316387   6.363268   6.743900   6.788817
    31  H    5.188375   5.562064   5.046840   5.201970   5.512141
    32  H    5.976028   6.386061   6.108868   6.167649   6.857530
                   11         12         13         14         15
    11  H    0.000000
    12  H    1.779176   0.000000
    13  H    1.777061   1.768004   0.000000
    14  H    4.598109   4.671379   4.336832   0.000000
    15  H    4.647886   4.380865   4.724875   1.738728   0.000000
    16  H    6.214214   5.540687   6.263157   3.520814   1.995518
    17  H    7.882756   7.080111   7.737109   4.719467   3.542579
    18  H    7.387379   6.981556   7.416866   3.733746   2.757877
    19  H    8.676016   7.719870   8.031110   5.181314   4.674360
    20  H    8.212881   7.453565   7.367256   4.367405   4.492382
    21  H    8.878547   8.253144   8.347721   4.724756   4.529332
    22  C    3.979797   2.831348   2.982155   3.321546   3.228410
    23  H    3.553567   2.344168   2.248276   4.010531   4.106119
    24  H    4.899679   3.864856   3.707305   3.400116   3.596173
    25  C    4.656477   3.156675   4.006699   4.299184   3.570411
    26  H    4.129553   2.570529   3.851457   4.626517   3.690526
    27  H    5.378718   4.036611   4.875819   4.159875   3.179740
    28  O    5.558963   3.897678   4.642734   5.500793   4.929952
    29  C    6.523488   4.791382   5.828935   6.596098   5.742857
    30  H    7.270281   5.511925   6.420769   7.464632   6.738238
    31  H    7.126591   5.471067   6.518921   6.590019   5.593929
    32  H    6.240267   4.499562   5.797697   6.902703   5.904657
                   16         17         18         19         20
    16  H    0.000000
    17  H    1.759776   0.000000
    18  H    1.778999   1.771805   0.000000
    19  H    3.570024   2.403979   3.439965   0.000000
    20  H    4.162811   3.577019   3.868941   1.784676   0.000000
    21  H    3.779086   2.754460   2.832936   1.778960   1.784988
    22  C    4.096296   5.207869   5.344458   5.188864   4.757605
    23  H    5.122206   6.287191   6.393815   6.214374   5.695854
    24  H    4.328556   5.136075   5.333650   4.638592   3.977091
    25  C    3.726662   4.726186   5.280103   4.952978   5.056569
    26  H    3.905627   5.136233   5.591593   5.776104   5.989934
    27  H    2.836726   3.657889   4.385072   4.012232   4.373044
    28  O    4.912134   5.604119   6.412730   5.390130   5.526719
    29  C    5.292499   5.783504   6.873739   5.720726   6.245115
    30  H    6.307286   6.665783   7.825510   6.318173   6.793693
    31  H    4.783887   5.006480   6.286447   4.965651   5.752756
    32  H    5.488127   6.172479   7.185262   6.480807   7.069656
                   21         22         23         24         25
    21  H    0.000000
    22  C    5.824501   0.000000
    23  H    6.861661   1.090153   0.000000
    24  H    5.275330   1.090451   1.753402   0.000000
    25  C    5.936494   1.531772   2.144539   2.160387   0.000000
    26  H    6.686887   2.176440   2.519299   3.076532   1.104192
    27  H    5.050445   2.177514   3.065408   2.508578   1.103774
    28  O    6.630957   2.373652   2.574818   2.628572   1.411918
    29  C    7.166783   3.673533   3.914639   3.955837   2.355813
    30  H    7.849651   4.398829   4.483352   4.537424   3.275603
    31  H    6.505367   4.048994   4.538632   4.211502   2.659332
    32  H    7.851867   4.054349   4.194579   4.580710   2.659515
                   26         27         28         29         30
    26  H    0.000000
    27  H    1.776054   0.000000
    28  O    2.080616   2.077540   0.000000
    29  C    2.641733   2.630942   1.411936   0.000000
    30  H    3.623901   3.614888   2.025903   1.092362   0.000000
    31  H    3.043412   2.454074   2.088631   1.101472   1.784022
    32  H    2.466117   3.029707   2.088554   1.101434   1.784419
                   31         32
    31  H    0.000000
    32  H    1.784156   0.000000
 Stoichiometry    C9H18N2O3
 Framework group  C1[X(C9H18N2O3)]
 Deg. of freedom    90
 Full point group                 C1      NOp   1
 Largest Abelian subgroup         C1      NOp   1
 Largest concise Abelian subgroup C1      NOp   1
                         Standard orientation:                         
 ---------------------------------------------------------------------
 Center     Atomic      Atomic             Coordinates (Angstroms)
 Number     Number       Type             X           Y           Z
 ---------------------------------------------------------------------
      1          6           0        3.399582   -1.247397   -0.085065
      2          6           0        1.975423   -1.721396    0.171799
      3          8           0        1.756153   -2.799798    0.718117
      4          7           0        0.935177   -0.920315   -0.242875
      5          6           0       -0.397615   -1.467775    0.063178
      6          6           0       -1.552514   -0.695106   -0.573236
      7          8           0       -1.584694   -0.547481   -1.793864
      8          7           0       -2.558196   -0.232077    0.241528
      9          6           0       -2.626439   -0.375410    1.691341
     10          6           0       -3.752249    0.325448   -0.387665
     11          1           0        4.067145   -1.989706    0.351157
     12          1           0        3.604474   -0.271807    0.366309
     13          1           0        3.608693   -1.169210   -1.157006
     14          1           0       -0.449281   -2.476157   -0.361493
     15          1           0       -0.496727   -1.602823    1.141242
     16          1           0       -1.640508   -0.317132    2.151618
     17          1           0       -3.224116    0.448057    2.092613
     18          1           0       -3.103593   -1.316931    1.994708
     19          1           0       -3.934674    1.342636   -0.022559
     20          1           0       -3.594435    0.346484   -1.463735
     21          1           0       -4.632021   -0.288384   -0.157390
     22          6           0        1.114342    0.423097   -0.788195
     23          1           0        2.095860    0.490892   -1.257728
     24          1           0        0.373551    0.593566   -1.570021
     25          6           0        1.006106    1.518475    0.277054
     26          1           0        1.733761    1.336907    1.087482
     27          1           0        0.001801    1.511196    0.734913
     28          8           0        1.256605    2.753439   -0.359834
     29          6           0        1.175919    3.855684    0.518863
     30          1           0        1.383173    4.754065   -0.066980
     31          1           0        0.174738    3.947980    0.968706
     32          1           0        1.913437    3.784107    1.333788
 ---------------------------------------------------------------------
 Rotational constants (GHZ):      0.6490449      0.5041833      0.3376136
 Standard basis: 6-31G(d,p) (6D, 7F)
 There are   300 symmetry adapted basis functions of A   symmetry.
 Integral buffers will be    131072 words long.
 Raffenetti 2 integral format.
 Two-electron integral symmetry is turned on.
   300 basis functions,   518 primitive gaussians,   300 cartesian basis functions
    55 alpha electrons       55 beta electrons
       nuclear repulsion energy       973.3772516206 Hartrees.
 NAtoms=   32 NActive=   32 NUniq=   32 SFac= 1.00D+00 NAtFMM=   60 NAOKFM=F Big=F
 One-electron integrals computed using PRISM.
 NBasis=   300 RedAO= T  NBF=   300
 NBsUse=   300 1.00D-06 NBFU=   300
 Initial guess read from the read-write file.
 B after Tr=     0.000000    0.000000    0.000000
         Rot=    1.000000    0.000000    0.000000    0.000000 Ang=   0.00 deg.
 Initial guess orbital symmetries:
       Occupied  (A) (A) (A) (A) (A) (A) (A) (A) (A) (A) (A) (A)
                 (A) (A) (A) (A) (A) (A) (A) (A) (A) (A) (A) (A)
                 (A) (A) (A) (A) (A) (A) (A) (A) (A) (A) (A) (A)
                 (A) (A) (A) (A) (A) (A) (A) (A) (A) (A) (A) (A)
                 (A) (A) (A) (A) (A) (A) (A)
       Virtual   (A) (A) (A) (A) (A) (A) (A) (A) (A) (A) (A) (A)
                 (A) (A) (A) (A) (A) (A) (A) (A) (A) (A) (A) (A)
                 (A) (A) (A) (A) (A) (A) (A) (A) (A) (A) (A) (A)
                 (A) (A) (A) (A) (A) (A) (A) (A) (A) (A) (A) (A)
                 (A) (A) (A) (A) (A) (A) (A) (A) (A) (A) (A) (A)
                 (A) (A) (A) (A) (A) (A) (A) (A) (A) (A) (A) (A)
                 (A) (A) (A) (A) (A) (A) (A) (A) (A) (A) (A) (A)
                 (A) (A) (A) (A) (A) (A) (A) (A) (A) (A) (A) (A)
                 (A) (A) (A) (A) (A) (A) (A) (A) (A) (A) (A) (A)
                 (A) (A) (A) (A) (A) (A) (A) (A) (A) (A) (A) (A)
                 (A) (A) (A) (A) (A) (A) (A) (A) (A) (A) (A) (A)
                 (A) (A) (A) (A) (A) (A) (A) (A) (A) (A) (A) (A)
                 (A) (A) (A) (A) (A) (A) (A) (A) (A) (A) (A) (A)
                 (A) (A) (A) (A) (A) (A) (A) (A) (A) (A) (A) (A)
                 (A) (A) (A) (A) (A) (A) (A) (A) (A) (A) (A) (A)
                 (A) (A) (A) (A) (A) (A) (A) (A) (A) (A) (A) (A)
                 (A) (A) (A) (A) (A) (A) (A) (A) (A) (A) (A) (A)
                 (A) (A) (A) (A) (A) (A) (A) (A) (A) (A) (A) (A)
                 (A) (A) (A) (A) (A) (A) (A) (A) (A) (A) (A) (A)
                 (A) (A) (A) (A) (A) (A) (A) (A) (A) (A) (A) (A)
                 (A) (A) (A) (A) (A)
 Harris functional with IExCor=  402 diagonalized for initial guess.
 ExpMin= 1.61D-01 ExpMax= 5.48D+03 ExpMxC= 8.25D+02 IAcc=1 IRadAn=         1 AccDes= 0.00D+00
 HarFok:  IExCor=  402 AccDes= 0.00D+00 IRadAn=         1 IDoV= 1
 ScaDFX=  1.000000  1.000000  1.000000  1.000000
 FoFCou: FMM=F IPFlag=           0 FMFlag=      100000 FMFlg1=           0
         NFxFlg=           0 DoJE=T BraDBF=F KetDBF=T FulRan=T
         Omega=  0.000000  0.000000  1.000000  0.000000  0.000000 ICntrl=     500 IOpCl=  0
         NMat0=    1 NMatS0=    1 NMatT0=    0 NMatD0=    1 NMtDS0=    0 NMtDT0=    0
         I1Cent=           4 NGrid=           0.
 Petite list used in FoFCou.
 Requested convergence on RMS density matrix=1.00D-08 within 128 cycles.
 Requested convergence on MAX density matrix=1.00D-06.
 Requested convergence on             energy=1.00D-06.
 No special actions if energy rises.
 Keep R1 ints in memory in canonical form, NReq=1033484164.
 Integral accuracy reduced to 1.0D-05 until final iterations.
 Initial convergence to 1.0D-05 achieved.  Increase integral accuracy.
