 Entering Gaussian System, Link 0=/data/opt/apps/g09-C01/g09
 Initial command:
 /data/opt/apps/g09-C01/l1.exe /tmp/g09-tuu61186-1307528c21e64fea8x/Gau-1307664.inp -scrdir=/tmp/g09-tuu61186-1307528c21e64fea8x/
 Entering Link 1 = /data/opt/apps/g09-C01/l1.exe PID=   1307670.
  
 Copyright (c) 1988,1990,1992,1993,1995,1998,2003,2009,2011,
            Gaussian, Inc.  All Rights Reserved.
  
 This is part of the Gaussian(R) 09 program.  It is based on
 the Gaussian(R) 03 system (copyright 2003, Gaussian, Inc.),
 the Gaussian(R) 98 system (copyright 1998, Gaussian, Inc.),
 the Gaussian(R) 94 system (copyright 1995, Gaussian, Inc.),
 the Gaussian 92(TM) system (copyright 1992, Gaussian, Inc.),
 the Gaussian 90(TM) system (copyright 1990, Gaussian, Inc.),
 the Gaussian 88(TM) system (copyright 1988, Gaussian, Inc.),
 the Gaussian 86(TM) system (copyright 1986, Carnegie Mellon
 University), and the Gaussian 82(TM) system (copyright 1983,
 Carnegie Mellon University). Gaussian is a federally registered
 trademark of Gaussian, Inc.
  
 This software contains proprietary and confidential information,
 including trade secrets, belonging to Gaussian, Inc.
  
 This software is provided under written license and may be
 used, copied, transmitted, or stored only in accord with that
 written license.
  
 The following legend is applicable only to US Government
 contracts under FAR:
  
                    RESTRICTED RIGHTS LEGEND
  
 Use, reproduction and disclosure by the US Government is
 subject to restrictions as set forth in subparagraphs (a)
 and (c) of the Commercial Computer Software - Restricted
 Rights clause in FAR 52.227-19.
  
 Gaussian, Inc.
 340 Quinnipiac St., Bldg. 40, Wallingford CT 06492
  
  
 ---------------------------------------------------------------
 Warning -- This program may not be used in any manner that
 competes with the business of Gaussian, Inc. or will provide
 assistance to any competitor of Gaussian, Inc.  The licensee
 of this program is prohibited from giving any competitor of
 Gaussian, Inc. access to this program.  By using this program,
 the user acknowledges that Gaussian, Inc. is engaged in the
 business of creating and licensing software in the field of
 computational chemistry and represents and warrants to the
 licensee that it is not a competitor of Gaussian, Inc. and that
 it will not use this program in any manner prohibited above.
 ---------------------------------------------------------------
  

 Cite this work as:
 Gaussian 09, Revision C.01,
 M. J. Frisch, G. W. Trucks, H. B. Schlegel, G. E. Scuseria, 
 M. A. Robb, J. R. Cheeseman, G. Scalmani, V. Barone, B. Mennucci, 
 G. A. Petersson, H. Nakatsuji, M. Caricato, X. Li, H. P. Hratchian, 
 A. F. Izmaylov, J. Bloino, G. Zheng, J. L. Sonnenberg, M. Hada, 
 M. Ehara, K. Toyota, R. Fukuda, J. Hasegawa, M. Ishida, T. Nakajima, 
 Y. Honda, O. Kitao, H. Nakai, T. Vreven, J. A. Montgomery, Jr., 
 J. E. Peralta, F. Ogliaro, M. Bearpark, J. J. Heyd, E. Brothers, 
 K. N. Kudin, V. N. Staroverov, T. Keith, R. Kobayashi, J. Normand, 
 K. Raghavachari, A. Rendell, J. C. Burant, S. S. Iyengar, J. Tomasi, 
 M. Cossi, N. Rega, J. M. Millam, M. Klene, J. E. Knox, J. B. Cross, 
 V. Bakken, C. Adamo, J. Jaramillo, R. Gomperts, R. E. Stratmann, 
 O. Yazyev, A. J. Austin, R. Cammi, C. Pomelli, J. W. Ochterski, 
 R. L. Martin, K. Morokuma, V. G. Zakrzewski, G. A. Voth, 
 P. Salvador, J. J. Dannenberg, S. Dapprich, A. D. Daniels, 
 O. Farkas, J. B. Foresman, J. V. Ortiz, J. Cioslowski, 
 and D. J. Fox, Gaussian, Inc., Wallingford CT, 2010.
 
 ******************************************
 Gaussian 09:  EM64L-G09RevC.01 23-Sep-2011
                24-Apr-2026 
 ******************************************
 %nprocshared=8
 Will use up to    8 processors via shared memory.
 %mem=14GB
 -----------------------------------
 # opt=modredundant b3lyp/6-31g(d,p)
 -----------------------------------
 1/14=-1,18=120,19=15,26=3,38=1/1,3;
 2/9=110,12=2,17=6,18=5,40=1/2;
 3/5=1,6=6,7=101,11=2,16=1,25=1,30=1,71=1,74=-5/1,2,3;
 4//1;
 5/5=2,38=5/2;
 6/7=2,8=2,9=2,10=2,28=1/1;
 7//1,2,3,16;
 1/14=-1,18=20,19=15/3(2);
 2/9=110/2;
 99//99;
 2/9=110/2;
 3/5=1,6=6,7=101,11=2,16=1,25=1,30=1,71=1,74=-5/1,2,3;
 4/5=5,16=3/1;
 5/5=2,38=5/2;
 7//1,2,3,16;
 1/14=-1,18=20,19=15/3(-5);
 2/9=110/2;
 6/7=2,8=2,9=2,10=2,19=2,28=1/1;
 99/9=1/99;
 ---------------
 QM dihedral opt
 ---------------
 Charge =  0 Multiplicity = 1
 Symbolic Z-Matrix:
 C                     0.80929   2.73801  -0.41261 
 C                    -0.09468   1.51897  -0.28621 
 O                    -1.24101   1.55157  -0.72445 
 N                     0.4197    0.39471   0.31748 
 C                    -0.44177  -0.75459   0.63423 
 C                    -1.94847  -0.44701   0.73629 
 O                    -2.3654    0.07537   1.76318 
 N                    -2.78437  -0.95153  -0.23296 
 C                    -2.37822  -1.12978  -1.62026 
 C                    -4.2062   -0.6725   -0.05753 
 H                     0.24715   3.49372  -0.95967 
 H                     1.73554   2.5201   -0.95289 
 H                     1.07871   3.13979   0.56963 
 H                    -0.23975  -1.583    -0.05369 
 H                    -0.1734   -1.09379   1.63874 
 H                    -1.33806  -1.44504  -1.69378 
 H                    -2.99973  -1.90525  -2.07968 
 H                    -2.48581  -0.19597  -2.18562 
 H                    -4.78898  -1.43907  -0.57699 
 H                    -4.44244  -0.68037   1.00496 
 H                    -4.47207   0.31291  -0.46407 
 C                     1.80288   0.28774   0.77541 
 H                     2.23304   1.27734   0.92946 
 H                     1.82095  -0.21835   1.74641 
 C                     2.6914   -0.48729  -0.20184 
 H                     2.70685   0.02086  -1.18143 
 H                     2.29011  -1.50113  -0.36921 
 O                     3.98338  -0.54433   0.3633 
 C                     4.9091   -1.24745  -0.44068 
 H                     5.86704  -1.23662   0.08378 
 H                     4.60092  -2.29267  -0.5984 
 H                     5.03688  -0.77318  -1.42611 
 
 The following ModRedundant input section has been read:
 D       2       4       5       6 F                                           
 D       4       5       6       8 S  36 10.000                                

 GradGradGradGradGradGradGradGradGradGradGradGradGradGradGradGradGradGrad
 Berny optimization.
 Initialization pass.
                           ----------------------------
                           !    Initial Parameters    !
                           ! (Angstroms and Degrees)  !
 --------------------------                            --------------------------
 ! Name  Definition              Value          Derivative Info.                !
 --------------------------------------------------------------------------------
 ! R1    R(1,2)                  1.5229         estimate D2E/DX2                !
 ! R2    R(1,11)                 1.0892         estimate D2E/DX2                !
 ! R3    R(1,12)                 1.0942         estimate D2E/DX2                !
 ! R4    R(1,13)                 1.0949         estimate D2E/DX2                !
 ! R5    R(2,3)                  1.2277         estimate D2E/DX2                !
 ! R6    R(2,4)                  1.3759         estimate D2E/DX2                !
 ! R7    R(4,5)                  1.4708         estimate D2E/DX2                !
 ! R8    R(4,22)                 1.4609         estimate D2E/DX2                !
 ! R9    R(5,6)                  1.5412         estimate D2E/DX2                !
 ! R10   R(5,14)                 1.0956         estimate D2E/DX2                !
 ! R11   R(5,15)                 1.0937         estimate D2E/DX2                !
 ! R12   R(6,7)                  1.2252         estimate D2E/DX2                !
 ! R13   R(6,8)                  1.3758         estimate D2E/DX2                !
 ! R14   R(8,9)                  1.4565         estimate D2E/DX2                !
 ! R15   R(8,10)                 1.4595         estimate D2E/DX2                !
 ! R16   R(9,16)                 1.0894         estimate D2E/DX2                !
 ! R17   R(9,17)                 1.0948         estimate D2E/DX2                !
 ! R18   R(9,18)                 1.0969         estimate D2E/DX2                !
 ! R19   R(10,19)                1.0941         estimate D2E/DX2                !
 ! R20   R(10,20)                1.0885         estimate D2E/DX2                !
 ! R21   R(10,21)                1.0986         estimate D2E/DX2                !
 ! R22   R(22,23)                1.09           estimate D2E/DX2                !
 ! R23   R(22,24)                1.0951         estimate D2E/DX2                !
 ! R24   R(22,25)                1.5314         estimate D2E/DX2                !
 ! R25   R(25,26)                1.1037         estimate D2E/DX2                !
 ! R26   R(25,27)                1.1031         estimate D2E/DX2                !
 ! R27   R(25,28)                1.4113         estimate D2E/DX2                !
 ! R28   R(28,29)                1.4134         estimate D2E/DX2                !
 ! R29   R(29,30)                1.0922         estimate D2E/DX2                !
 ! R30   R(29,31)                1.1011         estimate D2E/DX2                !
 ! R31   R(29,32)                1.1011         estimate D2E/DX2                !
 ! A1    A(2,1,11)             106.9007         estimate D2E/DX2                !
 ! A2    A(2,1,12)             112.5843         estimate D2E/DX2                !
 ! A3    A(2,1,13)             111.4286         estimate D2E/DX2                !
 ! A4    A(11,1,12)            109.0902         estimate D2E/DX2                !
 ! A5    A(11,1,13)            108.8422         estimate D2E/DX2                !
 ! A6    A(12,1,13)            107.9231         estimate D2E/DX2                !
 ! A7    A(1,2,3)              120.2234         estimate D2E/DX2                !
 ! A8    A(1,2,4)              117.9432         estimate D2E/DX2                !
 ! A9    A(3,2,4)              121.8308         estimate D2E/DX2                !
 ! A10   A(2,4,5)              120.9323         estimate D2E/DX2                !
 ! A11   A(2,4,22)             123.4578         estimate D2E/DX2                !
 ! A12   A(5,4,22)             115.4559         estimate D2E/DX2                !
 ! A13   A(4,5,6)              115.5261         estimate D2E/DX2                !
 ! A14   A(4,5,14)             110.342          estimate D2E/DX2                !
 ! A15   A(4,5,15)             107.243          estimate D2E/DX2                !
 ! A16   A(6,5,14)             111.8859         estimate D2E/DX2                !
 ! A17   A(6,5,15)             103.9436         estimate D2E/DX2                !
 ! A18   A(14,5,15)            107.2741         estimate D2E/DX2                !
 ! A19   A(5,6,7)              118.2465         estimate D2E/DX2                !
 ! A20   A(5,6,8)              118.3051         estimate D2E/DX2                !
 ! A21   A(7,6,8)              122.6879         estimate D2E/DX2                !
 ! A22   A(6,8,9)              123.1276         estimate D2E/DX2                !
 ! A23   A(6,8,10)             115.9199         estimate D2E/DX2                !
 ! A24   A(9,8,10)             114.1755         estimate D2E/DX2                !
 ! A25   A(8,9,16)             111.4666         estimate D2E/DX2                !
 ! A26   A(8,9,17)             109.1517         estimate D2E/DX2                !
 ! A27   A(8,9,18)             111.0628         estimate D2E/DX2                !
 ! A28   A(16,9,17)            107.9828         estimate D2E/DX2                !
 ! A29   A(16,9,18)            107.7722         estimate D2E/DX2                !
 ! A30   A(17,9,18)            109.331          estimate D2E/DX2                !
 ! A31   A(8,10,19)            109.1403         estimate D2E/DX2                !
 ! A32   A(8,10,20)            109.1094         estimate D2E/DX2                !
 ! A33   A(8,10,21)            111.2694         estimate D2E/DX2                !
 ! A34   A(19,10,20)           110.0459         estimate D2E/DX2                !
 ! A35   A(19,10,21)           108.8952         estimate D2E/DX2                !
 ! A36   A(20,10,21)           108.3706         estimate D2E/DX2                !
 ! A37   A(4,22,23)            110.5771         estimate D2E/DX2                !
 ! A38   A(4,22,24)            109.1098         estimate D2E/DX2                !
 ! A39   A(4,22,25)            112.7282         estimate D2E/DX2                !
 ! A40   A(23,22,24)           106.7224         estimate D2E/DX2                !
 ! A41   A(23,22,25)           108.7054         estimate D2E/DX2                !
 ! A42   A(24,22,25)           108.8057         estimate D2E/DX2                !
 ! A43   A(22,25,26)           109.9691         estimate D2E/DX2                !
 ! A44   A(22,25,27)           110.541          estimate D2E/DX2                !
 ! A45   A(22,25,28)           107.2213         estimate D2E/DX2                !
 ! A46   A(26,25,27)           107.0727         estimate D2E/DX2                !
 ! A47   A(26,25,28)           111.1746         estimate D2E/DX2                !
 ! A48   A(27,25,28)           110.8927         estimate D2E/DX2                !
 ! A49   A(25,28,29)           113.0729         estimate D2E/DX2                !
 ! A50   A(28,29,30)           107.2406         estimate D2E/DX2                !
 ! A51   A(28,29,31)           111.7403         estimate D2E/DX2                !
 ! A52   A(28,29,32)           111.766          estimate D2E/DX2                !
 ! A53   A(30,29,31)           108.8869         estimate D2E/DX2                !
 ! A54   A(30,29,32)           108.8873         estimate D2E/DX2                !
 ! A55   A(31,29,32)           108.2504         estimate D2E/DX2                !
 ! D1    D(11,1,2,3)            -2.5094         estimate D2E/DX2                !
 ! D2    D(11,1,2,4)           176.9202         estimate D2E/DX2                !
 ! D3    D(12,1,2,3)          -122.2838         estimate D2E/DX2                !
 ! D4    D(12,1,2,4)            57.1458         estimate D2E/DX2                !
 ! D5    D(13,1,2,3)           116.2972         estimate D2E/DX2                !
 ! D6    D(13,1,2,4)           -64.2732         estimate D2E/DX2                !
 ! D7    D(1,2,4,5)            171.8726         estimate D2E/DX2                !
 ! D8    D(1,2,4,22)            -3.4093         estimate D2E/DX2                !
 ! D9    D(3,2,4,5)             -8.7075         estimate D2E/DX2                !
 ! D10   D(3,2,4,22)           176.0106         estimate D2E/DX2                !
 ! D11   D(2,4,5,6)            -21.3302         Frozen                          !
 ! D12   D(2,4,5,14)           106.8109         estimate D2E/DX2                !
 ! D13   D(2,4,5,15)          -136.6591         estimate D2E/DX2                !
 ! D14   D(22,4,5,6)           154.311          estimate D2E/DX2                !
 ! D15   D(22,4,5,14)          -77.5479         estimate D2E/DX2                !
 ! D16   D(22,4,5,15)           38.9821         estimate D2E/DX2                !
 ! D17   D(2,4,22,23)           21.6251         estimate D2E/DX2                !
 ! D18   D(2,4,22,24)          138.712          estimate D2E/DX2                !
 ! D19   D(2,4,22,25)         -100.2896         estimate D2E/DX2                !
 ! D20   D(5,4,22,23)         -153.8931         estimate D2E/DX2                !
 ! D21   D(5,4,22,24)          -36.8063         estimate D2E/DX2                !
 ! D22   D(5,4,22,25)           84.1922         estimate D2E/DX2                !
 ! D23   D(4,5,6,7)            -78.5873         estimate D2E/DX2                !
 ! D24   D(4,5,6,8)            111.1277         Scan                            !
 ! D25   D(14,5,6,7)           154.0414         estimate D2E/DX2                !
 ! D26   D(14,5,6,8)           -16.2436         estimate D2E/DX2                !
 ! D27   D(15,5,6,7)            38.6082         estimate D2E/DX2                !
 ! D28   D(15,5,6,8)          -131.6769         estimate D2E/DX2                !
 ! D29   D(5,6,8,9)            -32.8734         estimate D2E/DX2                !
 ! D30   D(5,6,8,10)           177.7123         estimate D2E/DX2                !
 ! D31   D(7,6,8,9)            157.2999         estimate D2E/DX2                !
 ! D32   D(7,6,8,10)             7.8856         estimate D2E/DX2                !
 ! D33   D(6,8,9,16)            36.5029         estimate D2E/DX2                !
 ! D34   D(6,8,9,17)           155.6957         estimate D2E/DX2                !
 ! D35   D(6,8,9,18)           -83.69           estimate D2E/DX2                !
 ! D36   D(10,8,9,16)         -173.6055         estimate D2E/DX2                !
 ! D37   D(10,8,9,17)          -54.4127         estimate D2E/DX2                !
 ! D38   D(10,8,9,18)           66.2016         estimate D2E/DX2                !
 ! D39   D(6,8,10,19)         -155.2651         estimate D2E/DX2                !
 ! D40   D(6,8,10,20)          -34.9843         estimate D2E/DX2                !
 ! D41   D(6,8,10,21)           84.5398         estimate D2E/DX2                !
 ! D42   D(9,8,10,19)           52.5801         estimate D2E/DX2                !
 ! D43   D(9,8,10,20)          172.8609         estimate D2E/DX2                !
 ! D44   D(9,8,10,21)          -67.615          estimate D2E/DX2                !
 ! D45   D(4,22,25,26)          60.216          estimate D2E/DX2                !
 ! D46   D(4,22,25,27)         -57.8004         estimate D2E/DX2                !
 ! D47   D(4,22,25,28)        -178.7877         estimate D2E/DX2                !
 ! D48   D(23,22,25,26)        -62.7497         estimate D2E/DX2                !
 ! D49   D(23,22,25,27)        179.2339         estimate D2E/DX2                !
 ! D50   D(23,22,25,28)         58.2465         estimate D2E/DX2                !
 ! D51   D(24,22,25,26)       -178.6123         estimate D2E/DX2                !
 ! D52   D(24,22,25,27)         63.3713         estimate D2E/DX2                !
 ! D53   D(24,22,25,28)        -57.616          estimate D2E/DX2                !
 ! D54   D(22,25,28,29)        179.585          estimate D2E/DX2                !
 ! D55   D(26,25,28,29)        -60.1834         estimate D2E/DX2                !
 ! D56   D(27,25,28,29)         58.8201         estimate D2E/DX2                !
 ! D57   D(25,28,29,30)       -179.7838         estimate D2E/DX2                !
 ! D58   D(25,28,29,31)        -60.5333         estimate D2E/DX2                !
 ! D59   D(25,28,29,32)         60.9502         estimate D2E/DX2                !
 --------------------------------------------------------------------------------
 Trust Radius=3.00D-01 FncErr=1.00D-07 GrdErr=1.00D-06
 Number of optimizations in scan=  37
 Number of steps in this run=    155 maximum allowed number of steps=    192.
 GradGradGradGradGradGradGradGradGradGradGradGradGradGradGradGradGradGrad

                          Input orientation:                          
 ---------------------------------------------------------------------
 Center     Atomic      Atomic             Coordinates (Angstroms)
 Number     Number       Type             X           Y           Z
 ---------------------------------------------------------------------
      1          6           0        0.809294    2.738005   -0.412611
      2          6           0       -0.094676    1.518969   -0.286212
      3          8           0       -1.241014    1.551571   -0.724451
      4          7           0        0.419699    0.394710    0.317482
      5          6           0       -0.441765   -0.754586    0.634225
      6          6           0       -1.948472   -0.447012    0.736287
      7          8           0       -2.365401    0.075370    1.763177
      8          7           0       -2.784371   -0.951528   -0.232957
      9          6           0       -2.378221   -1.129779   -1.620263
     10          6           0       -4.206199   -0.672500   -0.057534
     11          1           0        0.247146    3.493716   -0.959666
     12          1           0        1.735541    2.520102   -0.952891
     13          1           0        1.078707    3.139787    0.569630
     14          1           0       -0.239745   -1.582996   -0.053687
     15          1           0       -0.173397   -1.093793    1.638742
     16          1           0       -1.338060   -1.445039   -1.693782
     17          1           0       -2.999731   -1.905245   -2.079676
     18          1           0       -2.485806   -0.195974   -2.185616
     19          1           0       -4.788982   -1.439074   -0.576991
     20          1           0       -4.442438   -0.680365    1.004961
     21          1           0       -4.472074    0.312912   -0.464068
     22          6           0        1.802877    0.287742    0.775405
     23          1           0        2.233036    1.277342    0.929462
     24          1           0        1.820947   -0.218347    1.746409
     25          6           0        2.691401   -0.487291   -0.201842
     26          1           0        2.706854    0.020858   -1.181433
     27          1           0        2.290105   -1.501130   -0.369205
     28          8           0        3.983380   -0.544334    0.363300
     29          6           0        4.909099   -1.247453   -0.440677
     30          1           0        5.867044   -1.236619    0.083776
     31          1           0        4.600921   -2.292666   -0.598402
     32          1           0        5.036876   -0.773180   -1.426113
 ---------------------------------------------------------------------
                    Distance matrix (angstroms):
                    1          2          3          4          5
     1  C    0.000000
     2  C    1.522888   0.000000
     3  O    2.389275   1.227684   0.000000
     4  N    2.485126   1.375858   2.276383   0.000000
     5  C    3.854764   2.477242   2.793414   1.470825   0.000000
     6  C    4.366872   2.889143   2.574604   2.547965   1.541163
     7  O    4.679996   3.382331   3.103499   3.154171   2.379860
     8  N    5.153577   3.652486   2.981446   3.518722   2.505712
     9  C    5.155427   3.743012   3.047188   3.729246   2.995555
    10  C    6.075590   4.664703   3.766111   4.762196   3.828346
    11  H    1.089210   2.114239   2.458022   3.356296   4.589461
    12  H    1.094220   2.190074   3.138490   2.804029   4.240658
    13  H    1.094902   2.176314   3.094864   2.834311   4.181166
    14  H    4.460982   3.114049   3.358270   2.117535   1.095581
    15  H    4.456053   3.246255   3.704381   2.076808   1.093681
    16  H    4.873437   3.508932   3.150983   3.243390   2.588375
    17  H    6.232780   4.835401   4.108442   4.767459   3.902879
    18  H    4.754941   3.502323   2.595847   3.880253   3.527273
    19  H    6.986824   5.556175   4.642605   5.594033   4.564413
    20  H    6.424597   5.040559   4.268667   5.026807   4.018500
    21  H    5.811762   4.543987   3.470133   4.954488   4.311518
    22  C    2.898686   2.498731   3.621064   1.460930   2.478870
    23  H    2.441667   2.637137   3.857415   2.107546   3.372011
    24  H    3.798003   3.289290   4.314321   2.093124   2.577668
    25  C    3.740225   3.434301   4.460265   2.491637   3.253795
    26  H    3.402162   3.300656   4.258823   2.759998   3.716413
    27  H    4.490540   3.849034   4.681237   2.750303   3.004549
    28  O    4.631480   4.616235   5.733264   3.685611   4.438414
    29  C    5.717785   5.719678   6.763058   4.840064   5.479971
    30  H    6.451734   6.578166   7.678003   5.691170   6.351096
    31  H    6.302270   6.055960   6.994444   5.054053   5.414217
    32  H    5.588207   5.734644   6.731174   5.071727   5.853276
                    6          7          8          9         10
     6  C    0.000000
     7  O    1.225241   0.000000
     8  N    1.375753   2.283551   0.000000
     9  C    2.490820   3.591687   1.456485   0.000000
    10  C    2.403815   2.694965   1.459529   2.448005   0.000000
    11  H    4.819371   5.091598   5.429401   5.357765   6.164696
    12  H    5.022852   5.492856   5.744573   5.539861   6.804311
    13  H    4.696458   4.762046   5.683870   5.913981   6.546533
    14  H    2.198697   3.251090   2.627929   2.689358   4.069616
    15  H    2.093715   2.487430   3.215693   3.934928   4.395262
    16  H    2.697016   3.913775   2.114090   1.089371   3.391216
    17  H    3.340844   4.369523   2.089576   1.094844   2.657872
    18  H    2.981487   3.959936   2.114918   1.096900   2.777690
    19  H    3.282893   3.693734   2.091537   2.644967   1.094124
    20  H    2.519227   2.336688   2.086901   3.369683   1.088470
    21  H    2.896015   3.074917   2.121453   2.793271   1.098634
    22  C    3.822828   4.288979   4.857513   5.022964   6.142056
    23  H    4.527220   4.825499   5.611903   5.793015   6.799985
    24  H    3.909112   4.196673   5.066004   5.458773   6.307690
    25  C    4.733934   5.454277   5.495504   5.303374   6.901595
    26  H    5.056542   5.865277   5.656739   5.232067   7.038053
    27  H    4.505420   5.357811   5.105970   4.847300   6.556351
    28  O    5.944364   6.530751   6.806158   6.689337   8.201386
    29  C    7.003730   7.715257   7.701961   7.383109   9.141446
    30  H    7.882356   8.503814   8.661904   8.420188  10.090016
    31  H    6.934146   7.727502   7.514968   7.148771   8.971223
    32  H    7.319662   8.104648   7.913743   7.426205   9.344388
                   11         12         13         14         15
    11  H    0.000000
    12  H    1.778564   0.000000
    13  H    1.776374   1.770172   0.000000
    14  H    5.179852   4.641738   4.942825   0.000000
    15  H    5.289028   4.839509   4.542462   1.762963   0.000000
    16  H    5.238617   5.071320   5.655478   1.978696   3.547609
    17  H    6.398860   6.578460   7.007484   3.438895   4.740596
    18  H    4.752451   5.168796   5.605750   3.393190   4.558402
    19  H    7.059847   7.641059   7.530636   4.581497   5.131502
    20  H    6.578367   7.227973   6.728010   4.426975   4.335587
    21  H    5.712632   6.606445   6.314343   4.655694   4.987911
    22  C    3.963463   2.823999   2.949733   2.891256   2.561181
    23  H    3.524894   2.309807   2.220508   3.906758   3.451996
    24  H    4.855832   3.846117   3.634941   3.057624   2.180689
    25  C    4.732557   3.243787   4.043717   3.132752   3.458708
    26  H    4.261465   2.691078   3.929988   3.539294   4.182306
    27  H    5.428703   4.101041   4.887434   2.550764   3.204156
    28  O    5.658227   4.021928   4.696003   4.368922   4.382631
    29  C    6.669471   4.952606   5.911049   5.174258   5.493574
    30  H    7.419440   5.679520   6.505164   6.118149   6.239010
    31  H    7.250385   5.612379   6.578893   4.922641   5.407053
    32  H    6.431601   4.687052   5.912817   5.511995   6.053352
                   16         17         18         19         20
    16  H    0.000000
    17  H    1.766877   0.000000
    18  H    1.766178   1.788002   0.000000
    19  H    3.627137   2.382603   3.072066   0.000000
    20  H    4.183910   3.618939   3.773967   1.788380   0.000000
    21  H    3.797977   3.114194   2.677303   1.783995   1.773562
    22  C    4.354871   6.002143   5.233969   6.947192   6.324072
    23  H    5.200528   6.823901   5.843102   7.678350   6.957030
    24  H    4.828976   6.381496   5.831762   7.111928   6.324018
    25  C    4.402241   6.158396   5.551909   7.550017   7.237770
    26  H    4.332746   6.089485   5.293309   7.660568   7.508955
    27  H    3.862801   5.574171   5.273719   7.082408   6.920197
    28  O    5.775862   7.522237   6.961946   8.867866   8.451310
    29  C    6.374661   8.103616   7.670400   9.700932   9.479594
    30  H    7.424061   9.151354   8.717981  10.678412  10.365492
    31  H    6.098346   7.753333   7.558906   9.428646   9.324839
    32  H    6.415828   8.142221   7.582925   9.884933   9.786528
                   21         22         23         24         25
    21  H    0.000000
    22  C    6.396244   0.000000
    23  H    6.915964   1.089990   0.000000
    24  H    6.691080   1.095126   1.753370   0.000000
    25  C    7.212798   1.531392   2.145665   2.150745   0.000000
    26  H    7.220590   2.172007   2.501826   3.068275   1.103654
    27  H    7.001915   2.178896   3.067523   2.518226   1.103140
    28  O    8.538976   2.369973   2.588966   2.587542   1.411329
    29  C    9.510084   3.672097   3.925963   3.921618   2.356496
    30  H   10.468932   4.395393   4.499022   4.491339   3.275329
    31  H    9.440674   4.046591   4.548209   4.186788   2.657613
    32  H    9.619005   4.053515   4.197010   4.551366   2.661170
                   26         27         28         29         30
    26  H    0.000000
    27  H    1.774779   0.000000
    28  O    2.082105   2.078269   0.000000
    29  C    2.647115   2.632221   1.413404   0.000000
    30  H    3.628885   3.615197   2.026224   1.092166   0.000000
    31  H    3.046278   2.453351   2.088754   1.101055   1.784284
    32  H    2.473735   3.031784   2.089072   1.101066   1.784298
                   31         32
    31  H    0.000000
    32  H    1.784377   0.000000
 Stoichiometry    C9H18N2O3
 Framework group  C1[X(C9H18N2O3)]
 Deg. of freedom    90
 Full point group                 C1      NOp   1
 Largest Abelian subgroup         C1      NOp   1
 Largest concise Abelian subgroup C1      NOp   1
                         Standard orientation:                         
 ---------------------------------------------------------------------
 Center     Atomic      Atomic             Coordinates (Angstroms)
 Number     Number       Type             X           Y           Z
 ---------------------------------------------------------------------
      1          6           0        0.809294    2.738005   -0.412611
      2          6           0       -0.094676    1.518969   -0.286212
      3          8           0       -1.241014    1.551571   -0.724451
      4          7           0        0.419699    0.394710    0.317482
      5          6           0       -0.441765   -0.754586    0.634225
      6          6           0       -1.948472   -0.447012    0.736287
      7          8           0       -2.365401    0.075370    1.763177
      8          7           0       -2.784371   -0.951528   -0.232957
      9          6           0       -2.378221   -1.129779   -1.620263
     10          6           0       -4.206199   -0.672500   -0.057534
     11          1           0        0.247146    3.493716   -0.959666
     12          1           0        1.735541    2.520102   -0.952891
     13          1           0        1.078707    3.139787    0.569630
     14          1           0       -0.239745   -1.582996   -0.053687
     15          1           0       -0.173397   -1.093793    1.638742
     16          1           0       -1.338060   -1.445039   -1.693782
     17          1           0       -2.999731   -1.905245   -2.079676
     18          1           0       -2.485806   -0.195974   -2.185616
     19          1           0       -4.788982   -1.439074   -0.576991
     20          1           0       -4.442438   -0.680365    1.004961
     21          1           0       -4.472074    0.312912   -0.464068
     22          6           0        1.802877    0.287742    0.775405
     23          1           0        2.233036    1.277342    0.929462
     24          1           0        1.820947   -0.218347    1.746409
     25          6           0        2.691401   -0.487291   -0.201842
     26          1           0        2.706854    0.020858   -1.181433
     27          1           0        2.290105   -1.501130   -0.369205
     28          8           0        3.983380   -0.544334    0.363300
     29          6           0        4.909099   -1.247453   -0.440677
     30          1           0        5.867044   -1.236619    0.083776
     31          1           0        4.600921   -2.292666   -0.598402
     32          1           0        5.036876   -0.773180   -1.426113
 ---------------------------------------------------------------------
 Rotational constants (GHZ):      1.1890563      0.3236447      0.2976597
 Standard basis: 6-31G(d,p) (6D, 7F)
 There are   300 symmetry adapted basis functions of A   symmetry.
 Integral buffers will be    131072 words long.
 Raffenetti 2 integral format.
 Two-electron integral symmetry is turned on.
   300 basis functions,   518 primitive gaussians,   300 cartesian basis functions
    55 alpha electrons       55 beta electrons
       nuclear repulsion energy       969.7797468520 Hartrees.
 NAtoms=   32 NActive=   32 NUniq=   32 SFac= 1.00D+00 NAtFMM=   60 NAOKFM=F Big=F
 One-electron integrals computed using PRISM.
 NBasis=   300 RedAO= T  NBF=   300
 NBsUse=   300 1.00D-06 NBFU=   300
 Harris functional with IExCor=  402 diagonalized for initial guess.
 ExpMin= 1.61D-01 ExpMax= 5.48D+03 ExpMxC= 8.25D+02 IAcc=1 IRadAn=         1 AccDes= 0.00D+00
 HarFok:  IExCor=  402 AccDes= 0.00D+00 IRadAn=         1 IDoV= 1
 ScaDFX=  1.000000  1.000000  1.000000  1.000000
 FoFCou: FMM=F IPFlag=           0 FMFlag=      100000 FMFlg1=           0
         NFxFlg=           0 DoJE=T BraDBF=F KetDBF=T FulRan=T
         Omega=  0.000000  0.000000  1.000000  0.000000  0.000000 ICntrl=     500 IOpCl=  0
         NMat0=    1 NMatS0=    1 NMatT0=    0 NMatD0=    1 NMtDS0=    0 NMtDT0=    0
         I1Cent=           4 NGrid=           0.
 Petite list used in FoFCou.
 Initial guess orbital symmetries:
       Occupied  (A) (A) (A) (A) (A) (A) (A) (A) (A) (A) (A) (A)
                 (A) (A) (A) (A) (A) (A) (A) (A) (A) (A) (A) (A)
                 (A) (A) (A) (A) (A) (A) (A) (A) (A) (A) (A) (A)
                 (A) (A) (A) (A) (A) (A) (A) (A) (A) (A) (A) (A)
                 (A) (A) (A) (A) (A) (A) (A)
       Virtual   (A) (A) (A) (A) (A) (A) (A) (A) (A) (A) (A) (A)
                 (A) (A) (A) (A) (A) (A) (A) (A) (A) (A) (A) (A)
                 (A) (A) (A) (A) (A) (A) (A) (A) (A) (A) (A) (A)
                 (A) (A) (A) (A) (A) (A) (A) (A) (A) (A) (A) (A)
                 (A) (A) (A) (A) (A) (A) (A) (A) (A) (A) (A) (A)
                 (A) (A) (A) (A) (A) (A) (A) (A) (A) (A) (A) (A)
                 (A) (A) (A) (A) (A) (A) (A) (A) (A) (A) (A) (A)
                 (A) (A) (A) (A) (A) (A) (A) (A) (A) (A) (A) (A)
                 (A) (A) (A) (A) (A) (A) (A) (A) (A) (A) (A) (A)
                 (A) (A) (A) (A) (A) (A) (A) (A) (A) (A) (A) (A)
                 (A) (A) (A) (A) (A) (A) (A) (A) (A) (A) (A) (A)
                 (A) (A) (A) (A) (A) (A) (A) (A) (A) (A) (A) (A)
                 (A) (A) (A) (A) (A) (A) (A) (A) (A) (A) (A) (A)
                 (A) (A) (A) (A) (A) (A) (A) (A) (A) (A) (A) (A)
                 (A) (A) (A) (A) (A) (A) (A) (A) (A) (A) (A) (A)
                 (A) (A) (A) (A) (A) (A) (A) (A) (A) (A) (A) (A)
                 (A) (A) (A) (A) (A) (A) (A) (A) (A) (A) (A) (A)
                 (A) (A) (A) (A) (A) (A) (A) (A) (A) (A) (A) (A)
                 (A) (A) (A) (A) (A) (A) (A) (A) (A) (A) (A) (A)
                 (A) (A) (A) (A) (A) (A) (A) (A) (A) (A) (A) (A)
                 (A) (A) (A) (A) (A)
 The electronic state of the initial guess is 1-A.
 Requested convergence on RMS density matrix=1.00D-08 within 128 cycles.
 Requested convergence on MAX density matrix=1.00D-06.
 Requested convergence on             energy=1.00D-06.
 No special actions if energy rises.
 Keep R1 ints in memory in canonical form, NReq=1033484804.
 Integral accuracy reduced to 1.0D-05 until final iterations.
 Initial convergence to 1.0D-05 achieved.  Increase integral accuracy.
 SCF Done:  E(RB3LYP) =  -688.988046968     A.U. after   14 cycles
             Convg  =    0.4910D-08             -V/T =  2.0093

 **********************************************************************

            Population analysis using the SCF density.

 **********************************************************************

 Orbital symmetries:
       Occupied  (A) (A) (A) (A) (A) (A) (A) (A) (A) (A) (A) (A)
                 (A) (A) (A) (A) (A) (A) (A) (A) (A) (A) (A) (A)
                 (A) (A) (A) (A) (A) (A) (A) (A) (A) (A) (A) (A)
                 (A) (A) (A) (A) (A) (A) (A) (A) (A) (A) (A) (A)
                 (A) (A) (A) (A) (A) (A) (A)
       Virtual   (A) (A) (A) (A) (A) (A) (A) (A) (A) (A) (A) (A)
                 (A) (A) (A) (A) (A) (A) (A) (A) (A) (A) (A) (A)
                 (A) (A) (A) (A) (A) (A) (A) (A) (A) (A) (A) (A)
                 (A) (A) (A) (A) (A) (A) (A) (A) (A) (A) (A) (A)
                 (A) (A) (A) (A) (A) (A) (A) (A) (A) (A) (A) (A)
                 (A) (A) (A) (A) (A) (A) (A) (A) (A) (A) (A) (A)
                 (A) (A) (A) (A) (A) (A) (A) (A) (A) (A) (A) (A)
                 (A) (A) (A) (A) (A) (A) (A) (A) (A) (A) (A) (A)
                 (A) (A) (A) (A) (A) (A) (A) (A) (A) (A) (A) (A)
                 (A) (A) (A) (A) (A) (A) (A) (A) (A) (A) (A) (A)
                 (A) (A) (A) (A) (A) (A) (A) (A) (A) (A) (A) (A)
                 (A) (A) (A) (A) (A) (A) (A) (A) (A) (A) (A) (A)
                 (A) (A) (A) (A) (A) (A) (A) (A) (A) (A) (A) (A)
                 (A) (A) (A) (A) (A) (A) (A) (A) (A) (A) (A) (A)
                 (A) (A) (A) (A) (A) (A) (A) (A) (A) (A) (A) (A)
                 (A) (A) (A) (A) (A) (A) (A) (A) (A) (A) (A) (A)
                 (A) (A) (A) (A) (A) (A) (A) (A) (A) (A) (A) (A)
                 (A) (A) (A) (A) (A) (A) (A) (A) (A) (A) (A) (A)
                 (A) (A) (A) (A) (A) (A) (A) (A) (A) (A) (A) (A)
                 (A) (A) (A) (A) (A) (A) (A) (A) (A) (A) (A) (A)
                 (A) (A) (A) (A) (A)
 The electronic state is 1-A.
 Alpha  occ. eigenvalues --  -19.16223 -19.11270 -19.09574 -14.37211 -14.35083
 Alpha  occ. eigenvalues --  -10.28997 -10.27590 -10.24635 -10.23868 -10.23257
 Alpha  occ. eigenvalues --  -10.22967 -10.21117 -10.19905 -10.19325  -1.04626
 Alpha  occ. eigenvalues --   -1.03570  -1.01570  -0.93758  -0.91789  -0.77526
 Alpha  occ. eigenvalues --   -0.75848  -0.71922  -0.70593  -0.68553  -0.66878
 Alpha  occ. eigenvalues --   -0.63109  -0.56781  -0.52673  -0.51302  -0.50285
 Alpha  occ. eigenvalues --   -0.49171  -0.48651  -0.46903  -0.45985  -0.45658
 Alpha  occ. eigenvalues --   -0.45579  -0.44111  -0.42927  -0.42076  -0.40093
 Alpha  occ. eigenvalues --   -0.39876  -0.39137  -0.39069  -0.38674  -0.38056
 Alpha  occ. eigenvalues --   -0.36708  -0.36455  -0.36101  -0.34094  -0.33251
 Alpha  occ. eigenvalues --   -0.26918  -0.25067  -0.25007  -0.23697  -0.22265
 Alpha virt. eigenvalues --    0.02167   0.02919   0.07109   0.08293   0.09243
 Alpha virt. eigenvalues --    0.10972   0.11964   0.12364   0.13678   0.14379
 Alpha virt. eigenvalues --    0.15236   0.15458   0.15817   0.16146   0.16939
 Alpha virt. eigenvalues --    0.17263   0.17728   0.17991   0.18755   0.19445
 Alpha virt. eigenvalues --    0.19854   0.20787   0.21360   0.22106   0.23467
 Alpha virt. eigenvalues --    0.24705   0.25736   0.26773   0.28996   0.32610
 Alpha virt. eigenvalues --    0.34805   0.38238   0.41765   0.47940   0.48800
 Alpha virt. eigenvalues --    0.49789   0.50396   0.51083   0.53256   0.54210
 Alpha virt. eigenvalues --    0.54771   0.55367   0.55831   0.56354   0.57249
 Alpha virt. eigenvalues --    0.59464   0.60796   0.62802   0.63210   0.65087
 Alpha virt. eigenvalues --    0.66250   0.67052   0.68502   0.69817   0.71369
 Alpha virt. eigenvalues --    0.73164   0.73976   0.75402   0.76489   0.77951
 Alpha virt. eigenvalues --    0.79038   0.79730   0.80793   0.81270   0.82235
 Alpha virt. eigenvalues --    0.82765   0.83637   0.84577   0.85831   0.86235
 Alpha virt. eigenvalues --    0.86663   0.87842   0.89577   0.89838   0.90580
 Alpha virt. eigenvalues --    0.91029   0.91945   0.93773   0.94033   0.95205
 Alpha virt. eigenvalues --    0.96393   0.97491   0.98560   0.99182   1.00227
 Alpha virt. eigenvalues --    1.00873   1.04363   1.05740   1.07322   1.09051
 Alpha virt. eigenvalues --    1.11112   1.16001   1.17004   1.18170   1.22277
 Alpha virt. eigenvalues --    1.25168   1.27013   1.30704   1.31260   1.34039
 Alpha virt. eigenvalues --    1.34989   1.35507   1.36476   1.39566   1.40736
 Alpha virt. eigenvalues --    1.44094   1.45326   1.47198   1.49825   1.52510
 Alpha virt. eigenvalues --    1.53901   1.58203   1.59806   1.64770   1.65368
 Alpha virt. eigenvalues --    1.68867   1.69810   1.70561   1.71843   1.75995
 Alpha virt. eigenvalues --    1.78889   1.79356   1.80840   1.82354   1.83820
 Alpha virt. eigenvalues --    1.84029   1.84639   1.86233   1.87122   1.89011
 Alpha virt. eigenvalues --    1.89533   1.90148   1.92324   1.93590   1.94554
 Alpha virt. eigenvalues --    1.96476   1.96699   1.97405   1.98438   1.99692
 Alpha virt. eigenvalues --    2.01344   2.01868   2.02377   2.02840   2.03204
 Alpha virt. eigenvalues --    2.04237   2.04424   2.04835   2.06918   2.08251
 Alpha virt. eigenvalues --    2.08832   2.09206   2.11163   2.11925   2.12564
 Alpha virt. eigenvalues --    2.13279   2.14883   2.17165   2.19293   2.20296
 Alpha virt. eigenvalues --    2.21855   2.24839   2.25550   2.27840   2.28639
 Alpha virt. eigenvalues --    2.30586   2.31776   2.36370   2.37043   2.39596
 Alpha virt. eigenvalues --    2.40909   2.43100   2.46773   2.49480   2.51169
 Alpha virt. eigenvalues --    2.51311   2.54629   2.56139   2.56474   2.56932
 Alpha virt. eigenvalues --    2.59286   2.61535   2.61961   2.62923   2.65377
 Alpha virt. eigenvalues --    2.66504   2.68016   2.69112   2.69493   2.70856
 Alpha virt. eigenvalues --    2.71407   2.72438   2.73756   2.77059   2.78538
 Alpha virt. eigenvalues --    2.80584   2.82401   2.83398   2.84539   2.85456
 Alpha virt. eigenvalues --    2.87311   2.88492   2.90344   2.91169   2.92775
 Alpha virt. eigenvalues --    2.96564   2.97094   3.01132   3.04553   3.08841
 Alpha virt. eigenvalues --    3.11253   3.13257   3.16134   3.16822   3.20045
 Alpha virt. eigenvalues --    3.21998   3.24689   3.26879   3.33509   3.35250
 Alpha virt. eigenvalues --    3.37647   3.40699   3.41645   3.42512   3.42958
 Alpha virt. eigenvalues --    3.43119   3.45892   3.46114   3.48268   3.50828
 Alpha virt. eigenvalues --    3.54590   3.94752   4.05516   4.06835   4.10401
 Alpha virt. eigenvalues --    4.25946   4.32295   4.37724   4.43221   4.45127
 Alpha virt. eigenvalues --    4.51585   4.53568   4.59870   4.69003   4.74512
          Condensed to atoms (all electrons):
              1          2          3          4          5          6
     1  C    5.158224   0.346635  -0.077749  -0.122754   0.005750   0.000280
     2  C    0.346635   4.362583   0.558909   0.267724  -0.035646   0.003585
     3  O   -0.077749   0.558909   8.095541  -0.090728  -0.005188   0.026254
     4  N   -0.122754   0.267724  -0.090728   7.099522   0.266337  -0.030657
     5  C    0.005750  -0.035646  -0.005188   0.266337   5.024692   0.328406
     6  C    0.000280   0.003585   0.026254  -0.030657   0.328406   4.371968
     7  O   -0.000081   0.003364  -0.005540   0.000318  -0.078771   0.558481
     8  N   -0.000074  -0.001048  -0.010632   0.001288  -0.100310   0.262099
     9  C    0.000068   0.001112   0.002290  -0.000898  -0.002612  -0.024976
    10  C   -0.000001  -0.000018  -0.000617  -0.000066   0.006475  -0.033901
    11  H    0.367800  -0.023065   0.005345   0.004589  -0.000133  -0.000004
    12  H    0.358835  -0.019621   0.001632   0.001422  -0.000163  -0.000005
    13  H    0.364584  -0.022471   0.001025   0.002785  -0.000051  -0.000022
    14  H   -0.000206  -0.000275   0.000424  -0.049074   0.345699  -0.029005
    15  H   -0.000135   0.002993   0.000547  -0.039232   0.369829  -0.020405
    16  H   -0.000015   0.000166  -0.000776  -0.000169   0.004073  -0.006138
    17  H    0.000001  -0.000019   0.000312  -0.000018  -0.000302   0.002750
    18  H    0.000061   0.000567   0.006879  -0.000155  -0.000209  -0.002229
    19  H    0.000000  -0.000002  -0.000008   0.000000  -0.000129   0.004777
    20  H    0.000000  -0.000011   0.000005  -0.000003   0.000641  -0.004249
    21  H    0.000003   0.000028   0.001017   0.000007  -0.000159  -0.002256
    22  C    0.000650  -0.021844   0.002781   0.251969  -0.041969   0.001672
    23  H    0.008330  -0.009689   0.000098  -0.028794   0.004049  -0.000066
    24  H   -0.000175   0.002381  -0.000094  -0.034866  -0.004265  -0.000079
    25  C   -0.001439  -0.000495   0.000009  -0.057357  -0.001563   0.000035
    26  H   -0.000352   0.001932  -0.000075   0.004280  -0.000173  -0.000019
    27  H    0.000064  -0.000216   0.000002   0.000844   0.002491   0.000068
    28  O    0.000001   0.000008   0.000000   0.002136  -0.000040   0.000000
    29  C    0.000000  -0.000002   0.000000  -0.000133   0.000001   0.000000
    30  H    0.000000   0.000000   0.000000   0.000001   0.000000   0.000000
    31  H    0.000000   0.000000   0.000000   0.000010  -0.000001   0.000000
    32  H    0.000000   0.000000   0.000000   0.000009   0.000000   0.000000
              7          8          9         10         11         12
     1  C   -0.000081  -0.000074   0.000068  -0.000001   0.367800   0.358835
     2  C    0.003364  -0.001048   0.001112  -0.000018  -0.023065  -0.019621
     3  O   -0.005540  -0.010632   0.002290  -0.000617   0.005345   0.001632
     4  N    0.000318   0.001288  -0.000898  -0.000066   0.004589   0.001422
     5  C   -0.078771  -0.100310  -0.002612   0.006475  -0.000133  -0.000163
     6  C    0.558481   0.262099  -0.024976  -0.033901  -0.000004  -0.000005
     7  O    8.113706  -0.091947   0.002551  -0.003571   0.000002   0.000000
     8  N   -0.091947   7.017145   0.293977   0.297787   0.000002   0.000001
     9  C    0.002551   0.293977   4.803008  -0.051679  -0.000003  -0.000002
    10  C   -0.003571   0.297787  -0.051679   4.805633   0.000000   0.000000
    11  H    0.000002   0.000002  -0.000003   0.000000   0.543160  -0.023051
    12  H    0.000000   0.000001  -0.000002   0.000000  -0.023051   0.585336
    13  H    0.000013   0.000001  -0.000001   0.000000  -0.020948  -0.029907
    14  H    0.003837   0.006654  -0.004414  -0.000160   0.000004   0.000014
    15  H    0.001996   0.002632   0.000378  -0.000158   0.000002  -0.000007
    16  H    0.000001  -0.031972   0.383098   0.004815   0.000000   0.000001
    17  H   -0.000092  -0.041171   0.377758  -0.004737   0.000000   0.000000
    18  H    0.000161  -0.045804   0.383861  -0.001238   0.000002  -0.000003
    19  H    0.000814  -0.041654  -0.003477   0.378168   0.000000   0.000000
    20  H    0.016283  -0.033989   0.004644   0.386844   0.000000   0.000000
    21  H    0.001272  -0.046521  -0.001478   0.387741   0.000000   0.000000
    22  C   -0.000202  -0.000114   0.000020   0.000002   0.000383  -0.001136
    23  H    0.000003   0.000002   0.000000   0.000000   0.000043  -0.002109
    24  H   -0.000021  -0.000005  -0.000003   0.000000  -0.000010   0.000196
    25  C    0.000002   0.000002  -0.000001   0.000000   0.000001   0.000008
    26  H    0.000000   0.000000  -0.000003   0.000000  -0.000028   0.002618
    27  H    0.000000   0.000004  -0.000005   0.000000   0.000001  -0.000070
    28  O    0.000000   0.000000   0.000000   0.000000   0.000000  -0.000051
    29  C    0.000000   0.000000   0.000000   0.000000   0.000000  -0.000003
    30  H    0.000000   0.000000   0.000000   0.000000   0.000000   0.000000
    31  H    0.000000   0.000000   0.000000   0.000000   0.000000   0.000000
    32  H    0.000000   0.000000   0.000000   0.000000   0.000000   0.000003
             13         14         15         16         17         18
     1  C    0.364584  -0.000206  -0.000135  -0.000015   0.000001   0.000061
     2  C   -0.022471  -0.000275   0.002993   0.000166  -0.000019   0.000567
     3  O    0.001025   0.000424   0.000547  -0.000776   0.000312   0.006879
     4  N    0.002785  -0.049074  -0.039232  -0.000169  -0.000018  -0.000155
     5  C   -0.000051   0.345699   0.369829   0.004073  -0.000302  -0.000209
     6  C   -0.000022  -0.029005  -0.020405  -0.006138   0.002750  -0.002229
     7  O    0.000013   0.003837   0.001996   0.000001  -0.000092   0.000161
     8  N    0.000001   0.006654   0.002632  -0.031972  -0.041171  -0.045804
     9  C   -0.000001  -0.004414   0.000378   0.383098   0.377758   0.383861
    10  C    0.000000  -0.000160  -0.000158   0.004815  -0.004737  -0.001238
    11  H   -0.020948   0.000004   0.000002   0.000000   0.000000   0.000002
    12  H   -0.029907   0.000014  -0.000007   0.000001   0.000000  -0.000003
    13  H    0.566553  -0.000004   0.000007   0.000000   0.000000   0.000000
    14  H   -0.000004   0.658575  -0.042469   0.000957   0.000226   0.000353
    15  H    0.000007  -0.042469   0.586309   0.000216   0.000007  -0.000055
    16  H    0.000000   0.000957   0.000216   0.602172  -0.028171  -0.034414
    17  H    0.000000   0.000226   0.000007  -0.028171   0.625959  -0.042321
    18  H    0.000000   0.000353  -0.000055  -0.034414  -0.042321   0.590740
    19  H    0.000000  -0.000028   0.000009   0.000178   0.005839  -0.001601
    20  H    0.000000  -0.000045  -0.000003  -0.000232   0.000175  -0.000246
    21  H    0.000000  -0.000001  -0.000008  -0.000203  -0.001617   0.006948
    22  C   -0.003797   0.000748  -0.007012  -0.000032   0.000000  -0.000003
    23  H    0.001859  -0.000203   0.000589   0.000000   0.000000   0.000000
    24  H    0.000187  -0.001442   0.008435   0.000004   0.000000   0.000000
    25  C    0.000147   0.001850  -0.001604   0.000018   0.000000   0.000000
    26  H    0.000048  -0.000055   0.000027   0.000014   0.000000   0.000000
    27  H   -0.000007   0.001078   0.000532   0.000021   0.000000  -0.000001
    28  O   -0.000004  -0.000053   0.000009   0.000000   0.000000   0.000000
    29  C    0.000000   0.000004  -0.000001   0.000000   0.000000   0.000000
    30  H    0.000000   0.000000   0.000000   0.000000   0.000000   0.000000
    31  H    0.000000   0.000000   0.000001   0.000000   0.000000   0.000000
    32  H    0.000000   0.000000   0.000000   0.000000   0.000000   0.000000
             19         20         21         22         23         24
     1  C    0.000000   0.000000   0.000003   0.000650   0.008330  -0.000175
     2  C   -0.000002  -0.000011   0.000028  -0.021844  -0.009689   0.002381
     3  O   -0.000008   0.000005   0.001017   0.002781   0.000098  -0.000094
     4  N    0.000000  -0.000003   0.000007   0.251969  -0.028794  -0.034866
     5  C   -0.000129   0.000641  -0.000159  -0.041969   0.004049  -0.004265
     6  C    0.004777  -0.004249  -0.002256   0.001672  -0.000066  -0.000079
     7  O    0.000814   0.016283   0.001272  -0.000202   0.000003  -0.000021
     8  N   -0.041654  -0.033989  -0.046521  -0.000114   0.000002  -0.000005
     9  C   -0.003477   0.004644  -0.001478   0.000020   0.000000  -0.000003
    10  C    0.378168   0.386844   0.387741   0.000002   0.000000   0.000000
    11  H    0.000000   0.000000   0.000000   0.000383   0.000043  -0.000010
    12  H    0.000000   0.000000   0.000000  -0.001136  -0.002109   0.000196
    13  H    0.000000   0.000000   0.000000  -0.003797   0.001859   0.000187
    14  H   -0.000028  -0.000045  -0.000001   0.000748  -0.000203  -0.001442
    15  H    0.000009  -0.000003  -0.000008  -0.007012   0.000589   0.008435
    16  H    0.000178  -0.000232  -0.000203  -0.000032   0.000000   0.000004
    17  H    0.005839   0.000175  -0.001617   0.000000   0.000000   0.000000
    18  H   -0.001601  -0.000246   0.006948  -0.000003   0.000000   0.000000
    19  H    0.626504  -0.023872  -0.043212   0.000000   0.000000   0.000000
    20  H   -0.023872   0.538311  -0.031502   0.000000   0.000000   0.000000
    21  H   -0.043212  -0.031502   0.606981   0.000000   0.000000   0.000000
    22  C    0.000000   0.000000   0.000000   4.906175   0.377049   0.375059
    23  H    0.000000   0.000000   0.000000   0.377049   0.588806  -0.029394
    24  H    0.000000   0.000000   0.000000   0.375059  -0.029394   0.603658
    25  C    0.000000   0.000000   0.000000   0.360230  -0.042681  -0.050307
    26  H    0.000000   0.000000   0.000000  -0.041000  -0.008578   0.006817
    27  H    0.000000   0.000000   0.000000  -0.039353   0.006506  -0.007984
    28  O    0.000000   0.000000   0.000000  -0.040030   0.005707   0.006130
    29  C    0.000000   0.000000   0.000000   0.004515  -0.000084  -0.000124
    30  H    0.000000   0.000000   0.000000  -0.000255   0.000007   0.000010
    31  H    0.000000   0.000000   0.000000   0.000034   0.000051  -0.000059
    32  H    0.000000   0.000000   0.000000   0.000013  -0.000071   0.000047
             25         26         27         28         29         30
     1  C   -0.001439  -0.000352   0.000064   0.000001   0.000000   0.000000
     2  C   -0.000495   0.001932  -0.000216   0.000008  -0.000002   0.000000
     3  O    0.000009  -0.000075   0.000002   0.000000   0.000000   0.000000
     4  N   -0.057357   0.004280   0.000844   0.002136  -0.000133   0.000001
     5  C   -0.001563  -0.000173   0.002491  -0.000040   0.000001   0.000000
     6  C    0.000035  -0.000019   0.000068   0.000000   0.000000   0.000000
     7  O    0.000002   0.000000   0.000000   0.000000   0.000000   0.000000
     8  N    0.000002   0.000000   0.000004   0.000000   0.000000   0.000000
     9  C   -0.000001  -0.000003  -0.000005   0.000000   0.000000   0.000000
    10  C    0.000000   0.000000   0.000000   0.000000   0.000000   0.000000
    11  H    0.000001  -0.000028   0.000001   0.000000   0.000000   0.000000
    12  H    0.000008   0.002618  -0.000070  -0.000051  -0.000003   0.000000
    13  H    0.000147   0.000048  -0.000007  -0.000004   0.000000   0.000000
    14  H    0.001850  -0.000055   0.001078  -0.000053   0.000004   0.000000
    15  H   -0.001604   0.000027   0.000532   0.000009  -0.000001   0.000000
    16  H    0.000018   0.000014   0.000021   0.000000   0.000000   0.000000
    17  H    0.000000   0.000000   0.000000   0.000000   0.000000   0.000000
    18  H    0.000000   0.000000  -0.000001   0.000000   0.000000   0.000000
    19  H    0.000000   0.000000   0.000000   0.000000   0.000000   0.000000
    20  H    0.000000   0.000000   0.000000   0.000000   0.000000   0.000000
    21  H    0.000000   0.000000   0.000000   0.000000   0.000000   0.000000
    22  C    0.360230  -0.041000  -0.039353  -0.040030   0.004515  -0.000255
    23  H   -0.042681  -0.008578   0.006506   0.005707  -0.000084   0.000007
    24  H   -0.050307   0.006817  -0.007984   0.006130  -0.000124   0.000010
    25  C    4.787884   0.359741   0.364608   0.231941  -0.033853   0.005352
    26  H    0.359741   0.686446  -0.061320  -0.038711  -0.006095  -0.000104
    27  H    0.364608  -0.061320   0.682811  -0.038858  -0.006083  -0.000107
    28  O    0.231941  -0.038711  -0.038858   8.205358   0.257337  -0.032634
    29  C   -0.033853  -0.006095  -0.006083   0.257337   4.709039   0.395038
    30  H    0.005352  -0.000104  -0.000107  -0.032634   0.395038   0.581266
    31  H   -0.009181  -0.002663   0.013348  -0.037367   0.370912  -0.034354
    32  H   -0.009050   0.013025  -0.002717  -0.037406   0.371068  -0.034665
             31         32
     1  C    0.000000   0.000000
     2  C    0.000000   0.000000
     3  O    0.000000   0.000000
     4  N    0.000010   0.000009
     5  C   -0.000001   0.000000
     6  C    0.000000   0.000000
     7  O    0.000000   0.000000
     8  N    0.000000   0.000000
     9  C    0.000000   0.000000
    10  C    0.000000   0.000000
    11  H    0.000000   0.000000
    12  H    0.000000   0.000003
    13  H    0.000000   0.000000
    14  H    0.000000   0.000000
    15  H    0.000001   0.000000
    16  H    0.000000   0.000000
    17  H    0.000000   0.000000
    18  H    0.000000   0.000000
    19  H    0.000000   0.000000
    20  H    0.000000   0.000000
    21  H    0.000000   0.000000
    22  C    0.000034   0.000013
    23  H    0.000051  -0.000071
    24  H   -0.000059   0.000047
    25  C   -0.009181  -0.009050
    26  H   -0.002663   0.013025
    27  H    0.013348  -0.002717
    28  O   -0.037367  -0.037406
    29  C    0.370912   0.371068
    30  H   -0.034354  -0.034665
    31  H    0.656845  -0.052096
    32  H   -0.052096   0.657504
 Mulliken atomic charges:
              1
     1  C   -0.408306
     2  C    0.582436
     3  O   -0.511663
     4  N   -0.448339
     5  C   -0.086757
     6  C    0.593638
     7  O   -0.522578
     8  N   -0.436352
     9  C   -0.163216
    10  C   -0.171322
    11  H    0.145908
    12  H    0.126060
    13  H    0.140003
    14  H    0.107011
    15  H    0.136571
    16  H    0.106389
    17  H    0.105421
    18  H    0.138708
    19  H    0.097696
    20  H    0.147250
    21  H    0.122960
    22  C   -0.084555
    23  H    0.128570
    24  H    0.125907
    25  C    0.095703
    26  H    0.084227
    27  H    0.084343
    28  O   -0.483474
    29  C   -0.061538
    30  H    0.120444
    31  H    0.094519
    32  H    0.094335
 Sum of Mulliken atomic charges =   0.00000
 Mulliken charges with hydrogens summed into heavy atoms:
              1
     1  C    0.003665
     2  C    0.582436
     3  O   -0.511663
     4  N   -0.448339
     5  C    0.156825
     6  C    0.593638
     7  O   -0.522578
     8  N   -0.436352
     9  C    0.187302
    10  C    0.196584
    22  C    0.169922
    25  C    0.264273
    28  O   -0.483474
    29  C    0.247760
 Sum of Mulliken charges with hydrogens summed into heavy atoms =   0.00000
 Electronic spatial extent (au):  <R**2>=           3944.2654
 Charge=              0.0000 electrons
 Dipole moment (field-independent basis, Debye):
    X=              3.5371    Y=             -2.0080    Z=             -2.7652  Tot=              4.9183
 Quadrupole moment (field-independent basis, Debye-Ang):
   XX=            -80.7941   YY=            -81.2421   ZZ=            -88.7788
   XY=              3.9337   XZ=              2.7912   YZ=              1.6730
 Traceless Quadrupole moment (field-independent basis, Debye-Ang):
   XX=              2.8109   YY=              2.3629   ZZ=             -5.1738
   XY=              3.9337   XZ=              2.7912   YZ=              1.6730
 Octapole moment (field-independent basis, Debye-Ang**2):
  XXX=             11.1253  YYY=             10.6460  ZZZ=             -6.4931  XYY=             13.5466
  XXY=            -27.1944  XXZ=            -34.3892  XZZ=             11.4906  YZZ=             -3.3051
  YYZ=              1.7661  XYZ=              0.2195
 Hexadecapole moment (field-independent basis, Debye-Ang**3):
 XXXX=          -3411.9084 YYYY=           -829.0658 ZZZZ=           -481.5041 XXXY=            -69.6641
 XXXZ=            -33.5640 YYYX=             -7.4555 YYYZ=              1.0868 ZZZX=             27.9995
 ZZZY=             -6.0412 XXYY=           -749.6212 XXZZ=           -730.3717 YYZZ=           -214.6820
 XXYZ=             17.4083 YYXZ=             -1.4549 ZZXY=             10.3828
 N-N= 9.697797468520D+02 E-N=-3.545452464724D+03  KE= 6.826174123999D+02
 Calling FoFJK, ICntrl=      2127 FMM=F ISym2X=0 I1Cent= 0 IOpClX= 0 NMat=1 NMatS=1 NMatT=0.
 ***** Axes restored to original set *****
 -------------------------------------------------------------------
 Center     Atomic                   Forces (Hartrees/Bohr)
 Number     Number              X              Y              Z
 -------------------------------------------------------------------
      1        6           0.000000363   -0.000000108   -0.000006236
      2        6           0.000622315   -0.001266823   -0.002901031
      3        8           0.000002269    0.000001425   -0.000003851
      4        7          -0.000806807    0.002111566    0.005489622
      5        6          -0.000113964   -0.001369371   -0.005267050
      6        6           0.000292843    0.000519666    0.002668195
      7        8          -0.000000596    0.000005791    0.000003309
      8        7          -0.000002993   -0.000002979    0.000004531
      9        6           0.000002578   -0.000004153   -0.000001208
     10        6           0.000004003   -0.000005494   -0.000000357
     11        1          -0.000003011   -0.000001666   -0.000008540
     12        1          -0.000003034   -0.000000820   -0.000006137
     13        1          -0.000002964    0.000002563   -0.000008272
     14        1           0.000001810    0.000000163    0.000004059
     15        1           0.000000410    0.000006717    0.000003400
     16        1          -0.000000320   -0.000004632    0.000003242
     17        1           0.000001517   -0.000007367    0.000005680
     18        1           0.000000074   -0.000007812   -0.000002273
     19        1           0.000000939   -0.000004856    0.000002298
     20        1           0.000000230    0.000000559    0.000000515
     21        1          -0.000000608   -0.000002725   -0.000001409
     22        6           0.000002418    0.000004113   -0.000000089
     23        1          -0.000001264    0.000003648   -0.000002520
     24        1          -0.000000418    0.000004670    0.000001285
     25        6          -0.000001060    0.000002861    0.000002461
     26        1           0.000000392   -0.000000293   -0.000000528
     27        1           0.000001252    0.000001063    0.000003416
     28        8          -0.000000072    0.000003466    0.000001389
     29        6           0.000001393    0.000003306    0.000004054
     30        1           0.000000903    0.000004776    0.000003376
     31        1           0.000001369    0.000002181    0.000006085
     32        1           0.000000032    0.000000565    0.000002585
 -------------------------------------------------------------------
 Cartesian Forces:  Max     0.005489622 RMS     0.000928483

 GradGradGradGradGradGradGradGradGradGradGradGradGradGradGradGradGradGrad
 Berny optimization.
 Internal  Forces:  Max     0.002703456 RMS     0.000366062
 Search for a local minimum.
 Step number   1 out of a maximum of  155 on scan point     1 out of    37
 All quantities printed in internal units (Hartrees-Bohrs-Radians)
 Mixed Optimization -- En-DIIS/RFO-DIIS
 Second derivative matrix not updated -- first step.
 ITU=  0
     Eigenvalues ---    0.00351   0.00463   0.00733   0.00886   0.00904
     Eigenvalues ---    0.00945   0.01048   0.01095   0.01514   0.01542
     Eigenvalues ---    0.01661   0.02011   0.02013   0.02563   0.04155
     Eigenvalues ---    0.05355   0.05507   0.05883   0.06341   0.06893
     Eigenvalues ---    0.07319   0.07448   0.07479   0.07526   0.07633
     Eigenvalues ---    0.09422   0.10039   0.10212   0.10511   0.11088
     Eigenvalues ---    0.11425   0.12883   0.13608   0.16000   0.16000
     Eigenvalues ---    0.16000   0.16000   0.16000   0.16000   0.16000
     Eigenvalues ---    0.16000   0.16000   0.16000   0.16000   0.16000
     Eigenvalues ---    0.21816   0.21926   0.21950   0.22063   0.23137
     Eigenvalues ---    0.24652   0.24895   0.24951   0.24999   0.25000
     Eigenvalues ---    0.25000   0.25000   0.28416   0.29295   0.30090
     Eigenvalues ---    0.33281   0.33337   0.33565   0.33566   0.33834
     Eigenvalues ---    0.34027   0.34176   0.34227   0.34252   0.34259
     Eigenvalues ---    0.34329   0.34340   0.34391   0.34564   0.34814
     Eigenvalues ---    0.34885   0.34904   0.34990   0.35642   0.36848
     Eigenvalues ---    0.37023   0.37408   0.43469   0.43793   0.49867
     Eigenvalues ---    0.49887   0.92058   0.930981000.000001000.00000
     Eigenvalues --- 1000.000001000.000001000.000001000.000001000.00000
     Eigenvalues --- 1000.000001000.000001000.000001000.000001000.00000
     Eigenvalues --- 1000.000001000.000001000.000001000.000001000.00000
     Eigenvalues --- 1000.000001000.000001000.000001000.000001000.00000
     Eigenvalues --- 1000.000001000.000001000.000001000.000001000.00000
     Eigenvalues --- 1000.000001000.000001000.000001000.000001000.00000
     Eigenvalues --- 1000.000001000.000001000.000001000.000001000.00000
     Eigenvalues --- 1000.000001000.000001000.000001000.000001000.00000
     Eigenvalues --- 1000.000001000.000001000.000001000.000001000.00000
     Eigenvalues --- 1000.000001000.000001000.000001000.000001000.00000
     Eigenvalues --- 1000.000001000.000001000.000001000.000001000.00000
 RFO step:  Lambda= 0.00000000D+00 EMin= 3.50685883D-03
 Linear search not attempted -- first point.
 Iteration  1 RMS(Cart)=  0.00011937 RMS(Int)=  0.00000000
 Iteration  2 RMS(Cart)=  0.00000001 RMS(Int)=  0.00000000
 Iteration  1 RMS(Cart)=  0.00000000 RMS(Int)=  0.00000000
 Variable       Old X    -DE/DX   Delta X   Delta X   Delta X     New X
                                 (Linear)    (Quad)   (Total)
    R1        2.87784   0.00000   0.00000   0.00000   0.00000   2.87784
    R2        2.05831   0.00000   0.00000   0.00000   0.00000   2.05831
    R3        2.06778   0.00000   0.00000   0.00000   0.00000   2.06777
    R4        2.06906   0.00000   0.00000   0.00000   0.00000   2.06906
    R5        2.31999   0.00000   0.00000   0.00000   0.00000   2.31998
    R6        2.60000   0.00000   0.00000   0.00001   0.00001   2.60001
    R7        2.77946   0.00000   0.00000   0.00000   0.00000   2.77945
    R8        2.76076   0.00000   0.00000   0.00001   0.00001   2.76076
    R9        2.91238   0.00000   0.00000  -0.00002  -0.00002   2.91236
   R10        2.07035   0.00000   0.00000   0.00000   0.00000   2.07035
   R11        2.06676   0.00000   0.00000   0.00000   0.00000   2.06676
   R12        2.31537   0.00000   0.00000   0.00001   0.00001   2.31538
   R13        2.59980   0.00000   0.00000   0.00000   0.00000   2.59980
   R14        2.75236   0.00000   0.00000   0.00001   0.00001   2.75237
   R15        2.75811   0.00000   0.00000  -0.00001  -0.00001   2.75810
   R16        2.05861   0.00000   0.00000   0.00000   0.00000   2.05861
   R17        2.06895   0.00000   0.00000   0.00000   0.00000   2.06895
   R18        2.07284   0.00000   0.00000   0.00000   0.00000   2.07284
   R19        2.06759   0.00000   0.00000   0.00000   0.00000   2.06760
   R20        2.05691   0.00000   0.00000   0.00000   0.00000   2.05691
   R21        2.07612   0.00000   0.00000   0.00000   0.00000   2.07612
   R22        2.05978   0.00000   0.00000   0.00000   0.00000   2.05978
   R23        2.06949   0.00000   0.00000   0.00000   0.00000   2.06949
   R24        2.89391   0.00000   0.00000  -0.00001  -0.00001   2.89391
   R25        2.08560   0.00000   0.00000   0.00000   0.00000   2.08561
   R26        2.08463   0.00000   0.00000   0.00000   0.00000   2.08463
   R27        2.66703   0.00000   0.00000   0.00000   0.00000   2.66702
   R28        2.67095   0.00000   0.00000   0.00000   0.00000   2.67094
   R29        2.06389   0.00000   0.00000   0.00000   0.00000   2.06389
   R30        2.08069   0.00000   0.00000   0.00000   0.00000   2.08069
   R31        2.08071   0.00000   0.00000   0.00000   0.00000   2.08071
    A1        1.86577   0.00000   0.00000   0.00000   0.00000   1.86577
    A2        1.96497   0.00000   0.00000   0.00000   0.00000   1.96497
    A3        1.94480   0.00000   0.00000   0.00000   0.00000   1.94480
    A4        1.90398   0.00000   0.00000   0.00000   0.00000   1.90398
    A5        1.89966   0.00000   0.00000   0.00000   0.00000   1.89965
    A6        1.88361   0.00000   0.00000   0.00001   0.00001   1.88362
    A7        2.09829   0.00000   0.00000  -0.00001  -0.00001   2.09828
    A8        2.05850   0.00000   0.00000  -0.00001  -0.00001   2.05848
    A9        2.12635   0.00001   0.00000   0.00002   0.00002   2.12637
   A10        2.11067  -0.00004   0.00000   0.00005   0.00005   2.11071
   A11        2.15475   0.00013   0.00000  -0.00002  -0.00002   2.15473
   A12        2.01508  -0.00003   0.00000  -0.00004  -0.00004   2.01505
   A13        2.01631  -0.00001   0.00000  -0.00001  -0.00001   2.01630
   A14        1.92583   0.00007   0.00000   0.00002   0.00002   1.92585
   A15        1.87174  -0.00014   0.00000  -0.00003  -0.00003   1.87172
   A16        1.95278   0.00113   0.00000   0.00003   0.00003   1.95280
   A17        1.81416  -0.00122   0.00000  -0.00002  -0.00002   1.81414
   A18        1.87229   0.00004   0.00000   0.00001   0.00001   1.87230
   A19        2.06379   0.00000   0.00000   0.00000   0.00000   2.06379
   A20        2.06481   0.00000   0.00000   0.00001   0.00001   2.06482
   A21        2.14131   0.00000   0.00000   0.00001   0.00001   2.14132
   A22        2.14898   0.00000   0.00000   0.00002   0.00002   2.14900
   A23        2.02318   0.00000   0.00000   0.00000   0.00000   2.02319
   A24        1.99274   0.00000   0.00000  -0.00001  -0.00001   1.99273
   A25        1.94546   0.00000   0.00000   0.00000   0.00000   1.94546
   A26        1.90506   0.00000   0.00000  -0.00002  -0.00002   1.90503
   A27        1.93841   0.00000   0.00000   0.00003   0.00003   1.93844
   A28        1.88466   0.00000   0.00000   0.00000   0.00000   1.88465
   A29        1.88098   0.00000   0.00000   0.00000   0.00000   1.88098
   A30        1.90819   0.00000   0.00000   0.00000   0.00000   1.90818
   A31        1.90486   0.00000   0.00000   0.00000   0.00000   1.90486
   A32        1.90432   0.00000   0.00000   0.00000   0.00000   1.90432
   A33        1.94202   0.00000   0.00000   0.00000   0.00000   1.94202
   A34        1.92066   0.00000   0.00000   0.00000   0.00000   1.92067
   A35        1.90058   0.00000   0.00000   0.00000   0.00000   1.90058
   A36        1.89142   0.00000   0.00000  -0.00001  -0.00001   1.89142
   A37        1.92993   0.00000   0.00000   0.00001   0.00001   1.92994
   A38        1.90432   0.00000   0.00000  -0.00001  -0.00001   1.90432
   A39        1.96748   0.00000   0.00000   0.00000   0.00000   1.96747
   A40        1.86266   0.00000   0.00000   0.00000   0.00000   1.86266
   A41        1.89727   0.00000   0.00000   0.00000   0.00000   1.89727
   A42        1.89902   0.00000   0.00000   0.00000   0.00000   1.89902
   A43        1.91932   0.00000   0.00000   0.00000   0.00000   1.91932
   A44        1.92930   0.00000   0.00000   0.00000   0.00000   1.92931
   A45        1.87136   0.00000   0.00000   0.00000   0.00000   1.87136
   A46        1.86877   0.00000   0.00000   0.00000   0.00000   1.86877
   A47        1.94036   0.00000   0.00000   0.00000   0.00000   1.94036
   A48        1.93544   0.00000   0.00000   0.00000   0.00000   1.93544
   A49        1.97349   0.00000   0.00000   0.00000   0.00000   1.97349
   A50        1.87170   0.00000   0.00000   0.00001   0.00001   1.87171
   A51        1.95024   0.00000   0.00000   0.00000   0.00000   1.95023
   A52        1.95068   0.00000   0.00000  -0.00001  -0.00001   1.95068
   A53        1.90043   0.00000   0.00000   0.00000   0.00000   1.90044
   A54        1.90044   0.00000   0.00000   0.00000   0.00000   1.90044
   A55        1.88933   0.00000   0.00000   0.00000   0.00000   1.88932
    D1       -0.04380   0.00000   0.00000   0.00002   0.00002  -0.04378
    D2        3.08784   0.00000   0.00000   0.00006   0.00006   3.08790
    D3       -2.13426   0.00000   0.00000   0.00002   0.00002  -2.13424
    D4        0.99738   0.00000   0.00000   0.00006   0.00006   0.99744
    D5        2.02977   0.00000   0.00000   0.00001   0.00001   2.02978
    D6       -1.12178   0.00000   0.00000   0.00005   0.00005  -1.12173
    D7        2.99974   0.00045   0.00000  -0.00005  -0.00005   2.99969
    D8       -0.05950  -0.00045   0.00000   0.00003   0.00003  -0.05947
    D9       -0.15197   0.00046   0.00000  -0.00001  -0.00001  -0.15198
   D10        3.07197  -0.00045   0.00000   0.00007   0.00007   3.07203
   D11       -0.37228  -0.00270   0.00000   0.00000   0.00000  -0.37228
   D12        1.86420  -0.00108   0.00000   0.00004   0.00004   1.86424
   D13       -2.38515  -0.00108   0.00000   0.00005   0.00005  -2.38510
   D14        2.69323  -0.00186   0.00000  -0.00007  -0.00007   2.69316
   D15       -1.35347  -0.00023   0.00000  -0.00003  -0.00003  -1.35350
   D16        0.68037  -0.00023   0.00000  -0.00002  -0.00002   0.68034
   D17        0.37743   0.00043   0.00000   0.00004   0.00004   0.37747
   D18        2.42098   0.00043   0.00000   0.00004   0.00004   2.42102
   D19       -1.75038   0.00043   0.00000   0.00004   0.00004  -1.75035
   D20       -2.68594  -0.00043   0.00000   0.00011   0.00011  -2.68583
   D21       -0.64239  -0.00043   0.00000   0.00011   0.00011  -0.64228
   D22        1.46943  -0.00043   0.00000   0.00011   0.00011   1.46954
   D23       -1.37161   0.00070   0.00000   0.00013   0.00013  -1.37148
   D24        1.93954   0.00070   0.00000   0.00000   0.00000   1.93954
   D25        2.68853  -0.00041   0.00000   0.00009   0.00009   2.68862
   D26       -0.28350  -0.00041   0.00000  -0.00004  -0.00004  -0.28354
   D27        0.67384  -0.00029   0.00000   0.00007   0.00007   0.67391
   D28       -2.29820  -0.00029   0.00000  -0.00005  -0.00005  -2.29825
   D29       -0.57375   0.00000   0.00000   0.00013   0.00013  -0.57362
   D30        3.10166   0.00000   0.00000   0.00009   0.00009   3.10176
   D31        2.74540   0.00000   0.00000   0.00000   0.00000   2.74540
   D32        0.13763   0.00000   0.00000  -0.00004  -0.00004   0.13759
   D33        0.63710   0.00000   0.00000  -0.00005  -0.00005   0.63704
   D34        2.71740   0.00000   0.00000  -0.00008  -0.00008   2.71732
   D35       -1.46067   0.00000   0.00000  -0.00008  -0.00008  -1.46074
   D36       -3.02999   0.00000   0.00000  -0.00001  -0.00001  -3.03000
   D37       -0.94968   0.00000   0.00000  -0.00004  -0.00004  -0.94972
   D38        1.15544   0.00000   0.00000  -0.00004  -0.00004   1.15540
   D39       -2.70989   0.00000   0.00000   0.00003   0.00003  -2.70986
   D40       -0.61059   0.00000   0.00000   0.00003   0.00003  -0.61056
   D41        1.47550   0.00000   0.00000   0.00002   0.00002   1.47552
   D42        0.91770   0.00000   0.00000  -0.00002  -0.00002   0.91768
   D43        3.01699   0.00000   0.00000  -0.00001  -0.00001   3.01698
   D44       -1.18010   0.00000   0.00000  -0.00002  -0.00002  -1.18012
   D45        1.05097   0.00000   0.00000   0.00005   0.00005   1.05102
   D46       -1.00881   0.00000   0.00000   0.00005   0.00005  -1.00876
   D47       -3.12043   0.00000   0.00000   0.00005   0.00005  -3.12038
   D48       -1.09519   0.00000   0.00000   0.00004   0.00004  -1.09515
   D49        3.12822   0.00000   0.00000   0.00004   0.00004   3.12826
   D50        1.01659   0.00000   0.00000   0.00004   0.00004   1.01664
   D51       -3.11737   0.00000   0.00000   0.00004   0.00004  -3.11733
   D52        1.10604   0.00000   0.00000   0.00004   0.00004   1.10608
   D53       -1.00559   0.00000   0.00000   0.00004   0.00004  -1.00555
   D54        3.13435   0.00000   0.00000   0.00000   0.00000   3.13435
   D55       -1.05040   0.00000   0.00000   0.00000   0.00000  -1.05040
   D56        1.02660   0.00000   0.00000   0.00000   0.00000   1.02660
   D57       -3.13782   0.00000   0.00000  -0.00002  -0.00002  -3.13784
   D58       -1.05650   0.00000   0.00000  -0.00001  -0.00001  -1.05652
   D59        1.06378   0.00000   0.00000  -0.00002  -0.00002   1.06376
         Item               Value     Threshold  Converged?
 Maximum Force            0.000012     0.000450     YES
 RMS     Force            0.000002     0.000300     YES
 Maximum Displacement     0.000419     0.001800     YES
 RMS     Displacement     0.000119     0.001200     YES
 Predicted change in Energy=-1.921346D-09
 Optimization completed.
    -- Stationary point found.
                           ----------------------------
                           !   Optimized Parameters   !
                           ! (Angstroms and Degrees)  !
 --------------------------                            --------------------------
 ! Name  Definition              Value          Derivative Info.                !
 --------------------------------------------------------------------------------
 ! R1    R(1,2)                  1.5229         -DE/DX =    0.0                 !
 ! R2    R(1,11)                 1.0892         -DE/DX =    0.0                 !
 ! R3    R(1,12)                 1.0942         -DE/DX =    0.0                 !
 ! R4    R(1,13)                 1.0949         -DE/DX =    0.0                 !
 ! R5    R(2,3)                  1.2277         -DE/DX =    0.0                 !
 ! R6    R(2,4)                  1.3759         -DE/DX =    0.0                 !
 ! R7    R(4,5)                  1.4708         -DE/DX =    0.0                 !
 ! R8    R(4,22)                 1.4609         -DE/DX =    0.0                 !
 ! R9    R(5,6)                  1.5412         -DE/DX =    0.0                 !
 ! R10   R(5,14)                 1.0956         -DE/DX =    0.0                 !
 ! R11   R(5,15)                 1.0937         -DE/DX =    0.0                 !
 ! R12   R(6,7)                  1.2252         -DE/DX =    0.0                 !
 ! R13   R(6,8)                  1.3758         -DE/DX =    0.0                 !
 ! R14   R(8,9)                  1.4565         -DE/DX =    0.0                 !
 ! R15   R(8,10)                 1.4595         -DE/DX =    0.0                 !
 ! R16   R(9,16)                 1.0894         -DE/DX =    0.0                 !
 ! R17   R(9,17)                 1.0948         -DE/DX =    0.0                 !
 ! R18   R(9,18)                 1.0969         -DE/DX =    0.0                 !
 ! R19   R(10,19)                1.0941         -DE/DX =    0.0                 !
 ! R20   R(10,20)                1.0885         -DE/DX =    0.0                 !
 ! R21   R(10,21)                1.0986         -DE/DX =    0.0                 !
 ! R22   R(22,23)                1.09           -DE/DX =    0.0                 !
 ! R23   R(22,24)                1.0951         -DE/DX =    0.0                 !
 ! R24   R(22,25)                1.5314         -DE/DX =    0.0                 !
 ! R25   R(25,26)                1.1037         -DE/DX =    0.0                 !
 ! R26   R(25,27)                1.1031         -DE/DX =    0.0                 !
 ! R27   R(25,28)                1.4113         -DE/DX =    0.0                 !
 ! R28   R(28,29)                1.4134         -DE/DX =    0.0                 !
 ! R29   R(29,30)                1.0922         -DE/DX =    0.0                 !
 ! R30   R(29,31)                1.1011         -DE/DX =    0.0                 !
 ! R31   R(29,32)                1.1011         -DE/DX =    0.0                 !
 ! A1    A(2,1,11)             106.9007         -DE/DX =    0.0                 !
 ! A2    A(2,1,12)             112.5843         -DE/DX =    0.0                 !
 ! A3    A(2,1,13)             111.4286         -DE/DX =    0.0                 !
 ! A4    A(11,1,12)            109.0902         -DE/DX =    0.0                 !
 ! A5    A(11,1,13)            108.8422         -DE/DX =    0.0                 !
 ! A6    A(12,1,13)            107.9231         -DE/DX =    0.0                 !
 ! A7    A(1,2,3)              120.2234         -DE/DX =    0.0                 !
 ! A8    A(1,2,4)              117.9432         -DE/DX =    0.0                 !
 ! A9    A(3,2,4)              121.8308         -DE/DX =    0.0                 !
 ! A10   A(2,4,5)              120.9323         -DE/DX =    0.0                 !
 ! A11   A(2,4,22)             123.4578         -DE/DX =    0.0001              !
 ! A12   A(5,4,22)             115.4559         -DE/DX =    0.0                 !
 ! A13   A(4,5,6)              115.5261         -DE/DX =    0.0                 !
 ! A14   A(4,5,14)             110.342          -DE/DX =    0.0001              !
 ! A15   A(4,5,15)             107.243          -DE/DX =   -0.0001              !
 ! A16   A(6,5,14)             111.8859         -DE/DX =    0.0011              !
[...]
   D24        2.81221  -0.00224   0.00000   0.00000   0.00000   2.81221
   D25       -2.72548  -0.00500   0.00000  -0.00670  -0.00669  -2.73217
   D26        0.63887  -0.00581   0.00000  -0.00317  -0.00317   0.63571
   D27        1.52646  -0.00239   0.00000  -0.00208  -0.00207   1.52439
   D28       -1.39238  -0.00320   0.00000   0.00146   0.00145  -1.39093
   D29       -0.60434   0.00115   0.00000  -0.00023  -0.00023  -0.60457
   D30        3.03320   0.00015   0.00000  -0.00220  -0.00221   3.03100
   D31        2.76217   0.00082   0.00000   0.00413   0.00414   2.76630
   D32        0.11652  -0.00018   0.00000   0.00215   0.00216   0.11869
   D33        0.48381  -0.00175   0.00000  -0.00347  -0.00347   0.48035
   D34        2.54149  -0.00006   0.00000  -0.00012  -0.00011   2.54138
   D35       -1.66518   0.00040   0.00000   0.00079   0.00079  -1.66439
   D36       -3.14155  -0.00034   0.00000  -0.00067  -0.00067   3.14097
   D37       -1.08387   0.00136   0.00000   0.00269   0.00269  -1.08118
   D38        0.99264   0.00182   0.00000   0.00359   0.00359   0.99623
   D39       -2.57943   0.00023   0.00000   0.00046   0.00046  -2.57897
   D40       -0.46785  -0.00052   0.00000  -0.00103  -0.00102  -0.46887
   D41        1.61887  -0.00017   0.00000  -0.00033  -0.00032   1.61855
   D42        0.99824   0.00020   0.00000   0.00040   0.00040   0.99864
   D43        3.10982  -0.00055   0.00000  -0.00108  -0.00108   3.10873
   D44       -1.08664  -0.00019   0.00000  -0.00038  -0.00038  -1.08703
   D45        0.98716   0.00011   0.00000   0.00023   0.00023   0.98739
   D46       -1.06910  -0.00030   0.00000  -0.00060  -0.00060  -1.06970
   D47        3.09681   0.00016   0.00000   0.00032   0.00032   3.09713
   D48       -1.11639   0.00016   0.00000   0.00033   0.00033  -1.11606
   D49        3.11054  -0.00025   0.00000  -0.00050  -0.00050   3.11004
   D50        0.99326   0.00021   0.00000   0.00042   0.00042   0.99368
   D51       -3.13645   0.00016   0.00000   0.00032   0.00032  -3.13613
   D52        1.09048  -0.00025   0.00000  -0.00050  -0.00050   1.08998
   D53       -1.02680   0.00021   0.00000   0.00042   0.00042  -1.02638
   D54       -3.14023  -0.00003   0.00000  -0.00006  -0.00006  -3.14028
   D55       -1.05417   0.00018   0.00000   0.00036   0.00036  -1.05381
   D56        1.02265  -0.00005   0.00000  -0.00010  -0.00010   1.02255
   D57        3.13324   0.00000   0.00000   0.00000   0.00000   3.13323
   D58       -1.06799  -0.00007   0.00000  -0.00013  -0.00013  -1.06813
   D59        1.04926   0.00020   0.00000   0.00040   0.00040   1.04966
         Item               Value     Threshold  Converged?
 Maximum Force            0.025273     0.000450     NO 
 RMS     Force            0.002842     0.000300     NO 
 Maximum Displacement     0.044141     0.001800     NO 
 RMS     Displacement     0.011592     0.001200     NO 
 Predicted change in Energy=-1.085640D-03
 GradGradGradGradGradGradGradGradGradGradGradGradGradGradGradGradGradGrad

                          Input orientation:                          
 ---------------------------------------------------------------------
 Center     Atomic      Atomic             Coordinates (Angstroms)
 Number     Number       Type             X           Y           Z
 ---------------------------------------------------------------------
      1          6           0        0.850532    3.144547    0.279084
      2          6           0        0.085473    1.999534   -0.369575
      3          8           0       -0.909102    2.220400   -1.062998
      4          7           0        0.589628    0.699476   -0.247818
      5          6           0       -0.353734   -0.433244   -0.252965
      6          6           0       -1.811068   -0.097758    0.115243
      7          8           0       -2.060657    0.806157    0.911642
      8          7           0       -2.773485   -1.019876   -0.264100
      9          6           0       -2.731641   -1.820252   -1.483076
     10          6           0       -4.132344   -0.767953    0.211891
     11          1           0        0.238053    4.037377    0.159198
     12          1           0        1.813010    3.316514   -0.215113
     13          1           0        1.041507    2.971226    1.341935
     14          1           0       -0.269005   -0.932184   -1.221383
     15          1           0       -0.014971   -1.152003    0.501958
     16          1           0       -1.713598   -1.996406   -1.821701
     17          1           0       -3.173362   -2.804039   -1.283885
     18          1           0       -3.307815   -1.349305   -2.290965
     19          1           0       -4.638691   -1.724684    0.375620
     20          1           0       -4.084970   -0.197674    1.136597
     21          1           0       -4.711675   -0.191610   -0.522898
     22          6           0        1.826885    0.423713    0.485046
     23          1           0        2.384174    1.346377    0.635557
     24          1           0        1.620970    0.002421    1.479911
     25          6           0        2.738867   -0.533274   -0.286024
     26          1           0        2.951539   -0.110361   -1.282248
     27          1           0        2.247513   -1.508107   -0.447675
     28          8           0        3.921119   -0.687272    0.470912
     29          6           0        4.856785   -1.553514   -0.136861
     30          1           0        5.730786   -1.598150    0.516744
     31          1           0        4.452286   -2.570543   -0.260133
     32          1           0        5.169565   -1.187358   -1.127138
 ---------------------------------------------------------------------
                    Distance matrix (angstroms):
                    1          2          3          4          5
     1  C    0.000000
     2  C    1.522212   0.000000
     3  O    2.398237   1.232394   0.000000
     4  N    2.514770   1.399696   2.285590   0.000000
     5  C    3.812338   2.474855   2.829560   1.474115   0.000000
     6  C    4.198035   2.868893   2.752390   2.555531   1.540113
     7  O    3.787245   2.769754   2.688004   2.894779   2.409567
     8  N    5.547159   4.159520   3.822768   3.777164   2.489871
     9  C    6.370746   4.875119   4.452526   4.348071   3.015196
    10  C    6.335710   5.078096   4.576558   4.966055   3.821781
    11  H    1.089334   2.110850   2.472070   3.380954   4.528415
    12  H    1.095522   2.177770   3.054549   2.889052   4.330924
    13  H    1.093693   2.188025   3.186270   2.809334   4.010090
    14  H    4.486034   3.073468   3.220807   2.085041   1.092682
    15  H    4.388520   3.271367   3.823828   2.087026   1.096031
    16  H    6.116981   4.616585   4.359392   3.879399   2.598776
    17  H    7.349849   5.876247   5.515492   5.244821   3.825410
    18  H    6.640159   5.140123   4.472642   4.854073   3.703944
    19  H    7.338276   6.061587   5.616328   5.796598   4.519268
    20  H    6.022039   4.948623   4.557569   4.957152   3.988545
    21  H    6.535386   5.276102   4.535313   5.382706   4.372974
    22  C    2.898038   2.499221   3.620794   1.464220   2.456448
    23  H    2.390094   2.592476   3.807186   2.102195   3.384178
    24  H    3.450872   3.125189   4.217473   2.129459   2.663104
    25  C    4.172712   3.669141   4.636171   2.477975   3.094395
    26  H    4.176890   3.674093   4.514982   2.702684   3.476853
    27  H    4.911917   4.121172   4.923881   2.768022   2.821299
    28  O    4.914076   4.757891   5.842813   3.679467   4.343144
    29  C    6.188283   5.953463   6.953100   4.826686   5.330853
    30  H    6.809298   6.752663   7.820807   5.682881   6.242664
    31  H    6.776846   6.321917   7.234791   5.060958   5.259841
    32  H    6.276696   6.047990   6.969011   5.030822   5.642668
                    6          7          8          9         10
     6  C    0.000000
     7  O    1.230287   0.000000
     8  N    1.385804   2.285802   0.000000
     9  C    2.523701   3.617032   1.458854   0.000000
    10  C    2.418021   2.694319   1.461687   2.437666   0.000000
    11  H    4.615210   4.036214   5.901216   6.769636   6.495717
    12  H    4.990023   4.751502   6.312101   6.974809   7.225817
    13  H    4.365846   3.807374   5.749992   6.721279   6.482838
    14  H    2.204721   3.283542   2.682630   2.630917   4.123910
    15  H    2.118241   2.861305   2.865956   3.430338   4.145406
    16  H    2.714059   3.930136   2.122049   1.087248   3.390417
    17  H    3.337269   4.369435   2.093585   1.096645   2.702340
    18  H    3.097816   4.056859   2.121842   1.098386   2.698538
    19  H    3.272635   3.652223   2.094036   2.664718   1.094773
    20  H    2.494750   2.270710   2.087573   3.365553   1.087448
    21  H    2.971457   3.175112   2.123577   2.737691   1.098959
    22  C    3.693696   3.929534   4.879404   5.448766   6.083346
    23  H    4.467248   4.486043   5.745431   6.378692   6.864028
    24  H    3.694758   3.810945   4.837138   5.571953   5.941546
    25  C    4.588311   5.124833   5.533831   5.745930   6.893224
    26  H    4.963422   5.547546   5.885554   5.938231   7.269544
    27  H    4.333364   5.075814   5.048019   5.095240   6.456425
    28  O    5.773387   6.181119   6.743041   7.025734   8.058031
    29  C    6.829571   7.383658   7.649966   7.711527   9.030125
    30  H    7.700126   8.163531   8.559600   8.698350   9.902702
    31  H    6.744270   7.429239   7.390288   7.325799   8.784532
    32  H    7.173561   7.772184   7.991554   7.934501   9.407147
                   11         12         13         14         15
    11  H    0.000000
    12  H    1.772074   0.000000
    13  H    1.783560   1.771677   0.000000
    14  H    5.182630   4.837231   4.850222   0.000000
    15  H    5.206839   4.880917   4.338516   1.755779   0.000000
    16  H    6.643752   6.576109   6.502042   1.892035   2.999624
    17  H    7.779795   7.966640   7.616675   3.455870   3.986714
    18  H    6.898755   7.232004   7.126117   3.248440   4.322288
    19  H    7.551875   8.208964   7.433033   4.719389   4.660763
    20  H    6.130211   6.997343   6.030328   4.545455   4.228286
    21  H    6.545945   7.414391   6.824972   4.557812   4.902215
    22  C    3.960951   2.976359   2.800160   3.023759   2.423964
    23  H    3.474800   2.220655   2.223029   3.959725   3.466359
    24  H    4.465156   3.727358   3.027972   3.426731   2.228315
    25  C    5.229067   3.960190   4.220521   3.175110   2.930421
    26  H    5.161831   3.765434   4.475571   3.324304   3.615050
    27  H    5.929470   4.849726   4.972079   2.695028   2.479404
    28  O    5.998705   4.576577   4.736608   4.525593   3.963552
    29  C    7.257989   5.743505   6.100528   5.275979   4.929838
    30  H    7.877634   6.327598   6.599202   6.281886   5.763071
    31  H    7.848580   6.451763   6.701585   5.089088   4.748623
    32  H    7.298790   5.690616   6.358538   5.445369   5.434576
                   16         17         18         19         20
    16  H    0.000000
    17  H    1.752834   0.000000
    18  H    1.783389   1.774412   0.000000
    19  H    3.668545   2.462957   3.003800   0.000000
    20  H    4.196471   3.671907   3.698432   1.793725   0.000000
    21  H    3.732645   3.125747   2.537152   1.778475   1.773899
    22  C    4.869608   6.208862   6.100408   6.814049   5.980023
    23  H    5.831298   7.196972   6.944780   7.669394   6.669704
    24  H    5.100519   6.204869   6.351346   6.586782   5.719760
    25  C    4.931886   6.411439   6.422465   7.502372   6.978627
    26  H    5.060798   6.691062   6.460031   7.935121   7.441162
    27  H    4.220993   5.636007   5.855306   6.938625   6.657889
    28  O    6.222535   7.608658   7.766836   8.622972   8.048622
    29  C    6.797409   8.207480   8.446452   9.510835   9.133180
    30  H    7.813181   9.164076   9.467918  10.371209   9.934517
    31  H    6.386412   7.697603   8.113869   9.152351   8.970290
    32  H    6.965265   8.499568   8.558429   9.937248   9.578643
                   21         22         23         24         25
    21  H    0.000000
    22  C    6.644347   0.000000
    23  H    7.352448   1.088362   0.000000
    24  H    6.644643   1.099838   1.761145   0.000000
    25  C    7.462133   1.530387   2.123253   2.157589   0.000000
    26  H    7.701173   2.161807   2.474260   3.068005   1.102972
    27  H    7.083016   2.186052   3.056165   2.527813   1.103567
    28  O    8.703935   2.370718   2.554415   2.604696   1.412228
    29  C    9.672602   3.671033   3.888418   3.937687   2.355571
    30  H   10.587928   4.396519   4.459166   4.514433   3.275664
    31  H    9.471354   4.051369   4.519028   4.202886   2.662131
    32  H    9.949650   4.045763   4.157561   4.561229   2.653977
                   26         27         28         29         30
    26  H    0.000000
    27  H    1.773657   0.000000
    28  O    2.084822   2.078107   0.000000
    29  C    2.650390   2.628111   1.412527   0.000000
    30  H    3.629615   3.615440   2.026498   1.092278   0.000000
    31  H    3.057689   2.454581   2.088846   1.101437   1.784279
    32  H    2.470552   3.017108   2.088652   1.101159   1.784956
                   31         32
    31  H    0.000000
    32  H    1.783084   0.000000
 Stoichiometry    C9H18N2O3
 Framework group  C1[X(C9H18N2O3)]
 Deg. of freedom    90
 Full point group                 C1      NOp   1
 Largest Abelian subgroup         C1      NOp   1
 Largest concise Abelian subgroup C1      NOp   1
                         Standard orientation:                         
 ---------------------------------------------------------------------
 Center     Atomic      Atomic             Coordinates (Angstroms)
 Number     Number       Type             X           Y           Z
 ---------------------------------------------------------------------
      1          6           0        0.815963    3.048165    0.011005
      2          6           0        0.019627    1.840071   -0.461740
      3          8           0       -1.007474    1.984709   -1.127275
      4          7           0        0.528494    0.559992   -0.213547
      5          6           0       -0.414543   -0.559757   -0.040751
      6          6           0       -1.852023   -0.174635    0.355836
      7          8           0       -2.062041    0.817500    1.052375
      8          7           0       -2.832240   -1.128738    0.133768
      9          6           0       -2.850279   -2.066035   -0.984000
     10          6           0       -4.166147   -0.814647    0.642265
     11          1           0        0.198796    3.924689   -0.182541
     12          1           0        1.753277    3.155389   -0.545872
     13          1           0        1.058461    2.998783    1.076331
     14          1           0       -0.377383   -1.168728   -0.947242
     15          1           0       -0.039712   -1.187663    0.775656
     16          1           0       -1.850047   -2.286752   -1.348592
     17          1           0       -3.282234   -3.017139   -0.650164
     18          1           0       -3.464941   -1.688956   -1.812526
     19          1           0       -4.664367   -1.742617    0.940892
     20          1           0       -4.073457   -0.140738    1.490674
     21          1           0       -4.780345   -0.324351   -0.125901
     22          6           0        1.799887    0.363933    0.485782
     23          1           0        2.364297    1.294395    0.500389
     24          1           0        1.642532    0.062799    1.531823
     25          6           0        2.672718   -0.682047   -0.211481
     26          1           0        2.836756   -0.379503   -1.259387
     27          1           0        2.173595   -1.666028   -0.234236
     28          8           0        3.890404   -0.754028    0.500170
     29          6           0        4.794898   -1.690988   -0.046847
     30          1           0        5.699713   -1.664500    0.564445
     31          1           0        4.384379   -2.712937   -0.030807
     32          1           0        5.059188   -1.444738   -1.087069
 ---------------------------------------------------------------------
 Rotational constants (GHZ):      0.9701925      0.3424184      0.2764140
 Standard basis: 6-31G(d,p) (6D, 7F)
 There are   300 symmetry adapted basis functions of A   symmetry.
 Integral buffers will be    131072 words long.
 Raffenetti 2 integral format.
 Two-electron integral symmetry is turned on.
   300 basis functions,   518 primitive gaussians,   300 cartesian basis functions
    55 alpha electrons       55 beta electrons
       nuclear repulsion energy       957.6491719736 Hartrees.
 NAtoms=   32 NActive=   32 NUniq=   32 SFac= 1.00D+00 NAtFMM=   60 NAOKFM=F Big=F
 One-electron integrals computed using PRISM.
 NBasis=   300 RedAO= T  NBF=   300
 NBsUse=   300 1.00D-06 NBFU=   300
 Initial guess read from the read-write file.
 B after Tr=     0.000000    0.000000    0.000000
         Rot=    1.000000    0.000000    0.000000    0.000000 Ang=   0.00 deg.
 Initial guess orbital symmetries:
       Occupied  (A) (A) (A) (A) (A) (A) (A) (A) (A) (A) (A) (A)
                 (A) (A) (A) (A) (A) (A) (A) (A) (A) (A) (A) (A)
                 (A) (A) (A) (A) (A) (A) (A) (A) (A) (A) (A) (A)
                 (A) (A) (A) (A) (A) (A) (A) (A) (A) (A) (A) (A)
                 (A) (A) (A) (A) (A) (A) (A)
       Virtual   (A) (A) (A) (A) (A) (A) (A) (A) (A) (A) (A) (A)
                 (A) (A) (A) (A) (A) (A) (A) (A) (A) (A) (A) (A)
                 (A) (A) (A) (A) (A) (A) (A) (A) (A) (A) (A) (A)
                 (A) (A) (A) (A) (A) (A) (A) (A) (A) (A) (A) (A)
                 (A) (A) (A) (A) (A) (A) (A) (A) (A) (A) (A) (A)
                 (A) (A) (A) (A) (A) (A) (A) (A) (A) (A) (A) (A)
                 (A) (A) (A) (A) (A) (A) (A) (A) (A) (A) (A) (A)
                 (A) (A) (A) (A) (A) (A) (A) (A) (A) (A) (A) (A)
                 (A) (A) (A) (A) (A) (A) (A) (A) (A) (A) (A) (A)
                 (A) (A) (A) (A) (A) (A) (A) (A) (A) (A) (A) (A)
                 (A) (A) (A) (A) (A) (A) (A) (A) (A) (A) (A) (A)
                 (A) (A) (A) (A) (A) (A) (A) (A) (A) (A) (A) (A)
                 (A) (A) (A) (A) (A) (A) (A) (A) (A) (A) (A) (A)
                 (A) (A) (A) (A) (A) (A) (A) (A) (A) (A) (A) (A)
                 (A) (A) (A) (A) (A) (A) (A) (A) (A) (A) (A) (A)
                 (A) (A) (A) (A) (A) (A) (A) (A) (A) (A) (A) (A)
                 (A) (A) (A) (A) (A) (A) (A) (A) (A) (A) (A) (A)
                 (A) (A) (A) (A) (A) (A) (A) (A) (A) (A) (A) (A)
                 (A) (A) (A) (A) (A) (A) (A) (A) (A) (A) (A) (A)
                 (A) (A) (A) (A) (A) (A) (A) (A) (A) (A) (A) (A)
                 (A) (A) (A) (A) (A)
 Harris functional with IExCor=  402 diagonalized for initial guess.
 ExpMin= 1.61D-01 ExpMax= 5.48D+03 ExpMxC= 8.25D+02 IAcc=1 IRadAn=         1 AccDes= 0.00D+00
 HarFok:  IExCor=  402 AccDes= 0.00D+00 IRadAn=         1 IDoV= 1
 ScaDFX=  1.000000  1.000000  1.000000  1.000000
 FoFCou: FMM=F IPFlag=           0 FMFlag=      100000 FMFlg1=           0
         NFxFlg=           0 DoJE=T BraDBF=F KetDBF=T FulRan=T
         Omega=  0.000000  0.000000  1.000000  0.000000  0.000000 ICntrl=     500 IOpCl=  0
         NMat0=    1 NMatS0=    1 NMatT0=    0 NMatD0=    1 NMtDS0=    0 NMtDT0=    0
         I1Cent=           4 NGrid=           0.
 Petite list used in FoFCou.
 Requested convergence on RMS density matrix=1.00D-08 within 128 cycles.
 Requested convergence on MAX density matrix=1.00D-06.
 Requested convergence on             energy=1.00D-06.
 No special actions if energy rises.
 Keep R1 ints in memory in canonical form, NReq=1033485096.
 Integral accuracy reduced to 1.0D-05 until final iterations.
 Initial convergence to 1.0D-05 achieved.  Increase integral accuracy.
 SCF Done:  E(RB3LYP) =  -688.975384636     A.U. after   11 cycles
             Convg  =    0.4776D-08             -V/T =  2.0095
