 Entering Gaussian System, Link 0=/data/opt/apps/g09-C01/g09
 Initial command:
 /data/opt/apps/g09-C01/l1.exe /tmp/g09-tuu61186-1178325c21e64fea8x/Gau-1178455.inp -scrdir=/tmp/g09-tuu61186-1178325c21e64fea8x/
 Entering Link 1 = /data/opt/apps/g09-C01/l1.exe PID=   1178465.
  
 Copyright (c) 1988,1990,1992,1993,1995,1998,2003,2009,2011,
            Gaussian, Inc.  All Rights Reserved.
  
 This is part of the Gaussian(R) 09 program.  It is based on
 the Gaussian(R) 03 system (copyright 2003, Gaussian, Inc.),
 the Gaussian(R) 98 system (copyright 1998, Gaussian, Inc.),
 the Gaussian(R) 94 system (copyright 1995, Gaussian, Inc.),
 the Gaussian 92(TM) system (copyright 1992, Gaussian, Inc.),
 the Gaussian 90(TM) system (copyright 1990, Gaussian, Inc.),
 the Gaussian 88(TM) system (copyright 1988, Gaussian, Inc.),
 the Gaussian 86(TM) system (copyright 1986, Carnegie Mellon
 University), and the Gaussian 82(TM) system (copyright 1983,
 Carnegie Mellon University). Gaussian is a federally registered
 trademark of Gaussian, Inc.
  
 This software contains proprietary and confidential information,
 including trade secrets, belonging to Gaussian, Inc.
  
 This software is provided under written license and may be
 used, copied, transmitted, or stored only in accord with that
 written license.
  
 The following legend is applicable only to US Government
 contracts under FAR:
  
                    RESTRICTED RIGHTS LEGEND
  
 Use, reproduction and disclosure by the US Government is
 subject to restrictions as set forth in subparagraphs (a)
 and (c) of the Commercial Computer Software - Restricted
 Rights clause in FAR 52.227-19.
  
 Gaussian, Inc.
 340 Quinnipiac St., Bldg. 40, Wallingford CT 06492
  
  
 ---------------------------------------------------------------
 Warning -- This program may not be used in any manner that
 competes with the business of Gaussian, Inc. or will provide
 assistance to any competitor of Gaussian, Inc.  The licensee
 of this program is prohibited from giving any competitor of
 Gaussian, Inc. access to this program.  By using this program,
 the user acknowledges that Gaussian, Inc. is engaged in the
 business of creating and licensing software in the field of
 computational chemistry and represents and warrants to the
 licensee that it is not a competitor of Gaussian, Inc. and that
 it will not use this program in any manner prohibited above.
 ---------------------------------------------------------------
  

 Cite this work as:
 Gaussian 09, Revision C.01,
 M. J. Frisch, G. W. Trucks, H. B. Schlegel, G. E. Scuseria, 
 M. A. Robb, J. R. Cheeseman, G. Scalmani, V. Barone, B. Mennucci, 
 G. A. Petersson, H. Nakatsuji, M. Caricato, X. Li, H. P. Hratchian, 
 A. F. Izmaylov, J. Bloino, G. Zheng, J. L. Sonnenberg, M. Hada, 
 M. Ehara, K. Toyota, R. Fukuda, J. Hasegawa, M. Ishida, T. Nakajima, 
 Y. Honda, O. Kitao, H. Nakai, T. Vreven, J. A. Montgomery, Jr., 
 J. E. Peralta, F. Ogliaro, M. Bearpark, J. J. Heyd, E. Brothers, 
 K. N. Kudin, V. N. Staroverov, T. Keith, R. Kobayashi, J. Normand, 
 K. Raghavachari, A. Rendell, J. C. Burant, S. S. Iyengar, J. Tomasi, 
 M. Cossi, N. Rega, J. M. Millam, M. Klene, J. E. Knox, J. B. Cross, 
 V. Bakken, C. Adamo, J. Jaramillo, R. Gomperts, R. E. Stratmann, 
 O. Yazyev, A. J. Austin, R. Cammi, C. Pomelli, J. W. Ochterski, 
 R. L. Martin, K. Morokuma, V. G. Zakrzewski, G. A. Voth, 
 P. Salvador, J. J. Dannenberg, S. Dapprich, A. D. Daniels, 
 O. Farkas, J. B. Foresman, J. V. Ortiz, J. Cioslowski, 
 and D. J. Fox, Gaussian, Inc., Wallingford CT, 2010.
 
 ******************************************
 Gaussian 09:  EM64L-G09RevC.01 23-Sep-2011
                24-Apr-2026 
 ******************************************
 %nprocshared=8
 Will use up to    8 processors via shared memory.
 %mem=14GB
 -----------------------------------
 # opt=modredundant b3lyp/6-31g(d,p)
 -----------------------------------
 1/14=-1,18=120,19=15,26=3,38=1/1,3;
 2/9=110,12=2,17=6,18=5,40=1/2;
 3/5=1,6=6,7=101,11=2,16=1,25=1,30=1,71=1,74=-5/1,2,3;
 4//1;
 5/5=2,38=5/2;
 6/7=2,8=2,9=2,10=2,28=1/1;
 7//1,2,3,16;
 1/14=-1,18=20,19=15/3(2);
 2/9=110/2;
 99//99;
 2/9=110/2;
 3/5=1,6=6,7=101,11=2,16=1,25=1,30=1,71=1,74=-5/1,2,3;
 4/5=5,16=3/1;
 5/5=2,38=5/2;
 7//1,2,3,16;
 1/14=-1,18=20,19=15/3(-5);
 2/9=110/2;
 6/7=2,8=2,9=2,10=2,19=2,28=1/1;
 99/9=1/99;
 ---------------
 QM dihedral opt
 ---------------
 Charge =  0 Multiplicity = 1
 Symbolic Z-Matrix:
 C                     1.53538   2.82778   0.46833 
 C                     0.40086   2.07982  -0.21423 
 O                    -0.51381   2.68444  -0.76505 
 N                     0.44408   0.7006   -0.20128 
 C                    -0.70739   0.00828  -0.74571 
 C                    -1.75172  -0.29698   0.35152 
 O                    -1.49993  -0.06422   1.52899 
 N                    -2.93519  -0.86079  -0.05199 
 C                    -3.33049  -1.08734  -1.43221 
 C                    -3.95866  -1.14104   0.94589 
 H                     1.4477    3.8765    0.18635 
 H                     2.5241    2.45617   0.18489 
 H                     1.44614   2.75047   1.55733 
 H                    -1.14069   0.65221  -1.51248 
 H                    -0.38387  -0.92739  -1.2168 
 H                    -2.49578  -0.95153  -2.11673 
 H                    -3.70071  -2.11297  -1.55157 
 H                    -4.13472  -0.40152  -1.73172 
 H                    -4.27275  -2.18998   0.88382 
 H                    -3.54307  -0.93923   1.93129 
 H                    -4.84005  -0.50656   0.78662 
 C                     1.421    -0.08981   0.54262 
 H                     1.87221   0.5095    1.33387 
 H                     0.90257  -0.91074   1.04358 
 C                     2.52411  -0.64623  -0.3598 
 H                     3.08238   0.17891  -0.83425 
 H                     2.08772  -1.24719  -1.17678 
 O                     3.37374  -1.43581   0.4461 
 C                     4.44723  -2.00425  -0.274 
 H                     5.03953  -2.58905   0.43346 
 H                     4.09407  -2.66975  -1.07751 
 H                     5.09115  -1.23314  -0.72531 
 
 The following ModRedundant input section has been read:
 D       2       4       5       6 F                                           
 D       4       5       6       8 S  36 10.000                                

 GradGradGradGradGradGradGradGradGradGradGradGradGradGradGradGradGradGrad
 Berny optimization.
 Initialization pass.
                           ----------------------------
                           !    Initial Parameters    !
                           ! (Angstroms and Degrees)  !
 --------------------------                            --------------------------
 ! Name  Definition              Value          Derivative Info.                !
 --------------------------------------------------------------------------------
 ! R1    R(1,2)                  1.5207         estimate D2E/DX2                !
 ! R2    R(1,11)                 1.0895         estimate D2E/DX2                !
 ! R3    R(1,12)                 1.0936         estimate D2E/DX2                !
 ! R4    R(1,13)                 1.0954         estimate D2E/DX2                !
 ! R5    R(2,3)                  1.227          estimate D2E/DX2                !
 ! R6    R(2,4)                  1.38           estimate D2E/DX2                !
 ! R7    R(4,5)                  1.4497         estimate D2E/DX2                !
 ! R8    R(4,22)                 1.4603         estimate D2E/DX2                !
 ! R9    R(5,6)                  1.5452         estimate D2E/DX2                !
 ! R10   R(5,14)                 1.091          estimate D2E/DX2                !
 ! R11   R(5,15)                 1.0964         estimate D2E/DX2                !
 ! R12   R(6,7)                  1.2264         estimate D2E/DX2                !
 ! R13   R(6,8)                  1.3716         estimate D2E/DX2                !
 ! R14   R(8,9)                  1.4535         estimate D2E/DX2                !
 ! R15   R(8,10)                 1.4566         estimate D2E/DX2                !
 ! R16   R(9,16)                 1.088          estimate D2E/DX2                !
 ! R17   R(9,17)                 1.0969         estimate D2E/DX2                !
 ! R18   R(9,18)                 1.0986         estimate D2E/DX2                !
 ! R19   R(10,19)                1.0967         estimate D2E/DX2                !
 ! R20   R(10,20)                1.0883         estimate D2E/DX2                !
 ! R21   R(10,21)                1.0976         estimate D2E/DX2                !
 ! R22   R(22,23)                1.0903         estimate D2E/DX2                !
 ! R23   R(22,24)                1.0925         estimate D2E/DX2                !
 ! R24   R(22,25)                1.53           estimate D2E/DX2                !
 ! R25   R(25,26)                1.1035         estimate D2E/DX2                !
 ! R26   R(25,27)                1.1041         estimate D2E/DX2                !
 ! R27   R(25,28)                1.4124         estimate D2E/DX2                !
 ! R28   R(28,29)                1.4121         estimate D2E/DX2                !
 ! R29   R(29,30)                1.0924         estimate D2E/DX2                !
 ! R30   R(29,31)                1.1015         estimate D2E/DX2                !
 ! R31   R(29,32)                1.1013         estimate D2E/DX2                !
 ! A1    A(2,1,11)             107.2918         estimate D2E/DX2                !
 ! A2    A(2,1,12)             113.0188         estimate D2E/DX2                !
 ! A3    A(2,1,13)             110.5329         estimate D2E/DX2                !
 ! A4    A(11,1,12)            109.4362         estimate D2E/DX2                !
 ! A5    A(11,1,13)            108.5837         estimate D2E/DX2                !
 ! A6    A(12,1,13)            107.8988         estimate D2E/DX2                !
 ! A7    A(1,2,3)              121.0154         estimate D2E/DX2                !
 ! A8    A(1,2,4)              117.6464         estimate D2E/DX2                !
 ! A9    A(3,2,4)              121.3359         estimate D2E/DX2                !
 ! A10   A(2,4,5)              116.6734         estimate D2E/DX2                !
 ! A11   A(2,4,22)             124.5209         estimate D2E/DX2                !
 ! A12   A(5,4,22)             117.6576         estimate D2E/DX2                !
 ! A13   A(4,5,6)              111.376          estimate D2E/DX2                !
 ! A14   A(4,5,14)             107.3093         estimate D2E/DX2                !
 ! A15   A(4,5,15)             109.5448         estimate D2E/DX2                !
 ! A16   A(6,5,14)             110.3175         estimate D2E/DX2                !
 ! A17   A(6,5,15)             109.6301         estimate D2E/DX2                !
 ! A18   A(14,5,15)            108.5964         estimate D2E/DX2                !
 ! A19   A(5,6,7)              120.3649         estimate D2E/DX2                !
 ! A20   A(5,6,8)              117.0935         estimate D2E/DX2                !
 ! A21   A(7,6,8)              122.5223         estimate D2E/DX2                !
 ! A22   A(6,8,9)              125.3171         estimate D2E/DX2                !
 ! A23   A(6,8,10)             118.9335         estimate D2E/DX2                !
 ! A24   A(9,8,10)             115.4325         estimate D2E/DX2                !
 ! A25   A(8,9,16)             111.6741         estimate D2E/DX2                !
 ! A26   A(8,9,17)             109.9291         estimate D2E/DX2                !
 ! A27   A(8,9,18)             111.1427         estimate D2E/DX2                !
 ! A28   A(16,9,17)            107.8897         estimate D2E/DX2                !
 ! A29   A(16,9,18)            108.1914         estimate D2E/DX2                !
 ! A30   A(17,9,18)            107.877          estimate D2E/DX2                !
 ! A31   A(8,10,19)            110.2715         estimate D2E/DX2                !
 ! A32   A(8,10,20)            108.4384         estimate D2E/DX2                !
 ! A33   A(8,10,21)            110.7065         estimate D2E/DX2                !
 ! A34   A(19,10,20)           109.7526         estimate D2E/DX2                !
 ! A35   A(19,10,21)           108.342          estimate D2E/DX2                !
 ! A36   A(20,10,21)           109.3192         estimate D2E/DX2                !
 ! A37   A(4,22,23)            110.427          estimate D2E/DX2                !
 ! A38   A(4,22,24)            108.8346         estimate D2E/DX2                !
 ! A39   A(4,22,25)            112.2542         estimate D2E/DX2                !
 ! A40   A(23,22,24)           106.0587         estimate D2E/DX2                !
 ! A41   A(23,22,25)           109.242          estimate D2E/DX2                !
 ! A42   A(24,22,25)           109.835          estimate D2E/DX2                !
 ! A43   A(22,25,26)           110.2694         estimate D2E/DX2                !
 ! A44   A(22,25,27)           110.4515         estimate D2E/DX2                !
 ! A45   A(22,25,28)           107.4869         estimate D2E/DX2                !
 ! A46   A(26,25,27)           106.7873         estimate D2E/DX2                !
 ! A47   A(26,25,28)           111.0411         estimate D2E/DX2                !
 ! A48   A(27,25,28)           110.8357         estimate D2E/DX2                !
 ! A49   A(25,28,29)           113.0404         estimate D2E/DX2                !
 ! A50   A(28,29,30)           107.3033         estimate D2E/DX2                !
 ! A51   A(28,29,31)           111.8063         estimate D2E/DX2                !
 ! A52   A(28,29,32)           111.8137         estimate D2E/DX2                !
 ! A53   A(30,29,31)           108.8348         estimate D2E/DX2                !
 ! A54   A(30,29,32)           108.8563         estimate D2E/DX2                !
 ! A55   A(31,29,32)           108.1537         estimate D2E/DX2                !
 ! D1    D(11,1,2,3)           -10.8591         estimate D2E/DX2                !
 ! D2    D(11,1,2,4)           168.592          estimate D2E/DX2                !
 ! D3    D(12,1,2,3)          -131.5843         estimate D2E/DX2                !
 ! D4    D(12,1,2,4)            47.8668         estimate D2E/DX2                !
 ! D5    D(13,1,2,3)           107.3711         estimate D2E/DX2                !
 ! D6    D(13,1,2,4)           -73.1778         estimate D2E/DX2                !
 ! D7    D(1,2,4,5)            174.378          estimate D2E/DX2                !
 ! D8    D(1,2,4,22)             6.9501         estimate D2E/DX2                !
 ! D9    D(3,2,4,5)             -6.1728         estimate D2E/DX2                !
 ! D10   D(3,2,4,22)          -173.6008         estimate D2E/DX2                !
 ! D11   D(2,4,5,6)            -91.3301         Frozen                          !
 ! D12   D(2,4,5,14)            29.5031         estimate D2E/DX2                !
 ! D13   D(2,4,5,15)           147.2187         estimate D2E/DX2                !
 ! D14   D(22,4,5,6)            76.9882         estimate D2E/DX2                !
 ! D15   D(22,4,5,14)         -162.1787         estimate D2E/DX2                !
 ! D16   D(22,4,5,15)          -44.4631         estimate D2E/DX2                !
 ! D17   D(2,4,22,23)           19.5995         estimate D2E/DX2                !
 ! D18   D(2,4,22,24)          135.6345         estimate D2E/DX2                !
 ! D19   D(2,4,22,25)         -102.5665         estimate D2E/DX2                !
 ! D20   D(5,4,22,23)         -147.7153         estimate D2E/DX2                !
 ! D21   D(5,4,22,24)          -31.6802         estimate D2E/DX2                !
 ! D22   D(5,4,22,25)           90.1187         estimate D2E/DX2                !
 ! D23   D(4,5,6,7)             -6.3509         estimate D2E/DX2                !
 ! D24   D(4,5,6,8)            175.2102         Scan                            !
 ! D25   D(14,5,6,7)          -125.4046         estimate D2E/DX2                !
 ! D26   D(14,5,6,8)            56.1565         estimate D2E/DX2                !
 ! D27   D(15,5,6,7)           115.0507         estimate D2E/DX2                !
 ! D28   D(15,5,6,8)           -63.3882         estimate D2E/DX2                !
 ! D29   D(5,6,8,9)             -5.5818         estimate D2E/DX2                !
 ! D30   D(5,6,8,10)          -178.806          estimate D2E/DX2                !
 ! D31   D(7,6,8,9)            176.0157         estimate D2E/DX2                !
 ! D32   D(7,6,8,10)             2.7915         estimate D2E/DX2                !
 ! D33   D(6,8,9,16)            12.0058         estimate D2E/DX2                !
 ! D34   D(6,8,9,17)           131.7221         estimate D2E/DX2                !
 ! D35   D(6,8,9,18)          -108.917          estimate D2E/DX2                !
 ! D36   D(10,8,9,16)         -174.5596         estimate D2E/DX2                !
 ! D37   D(10,8,9,17)          -54.8434         estimate D2E/DX2                !
 ! D38   D(10,8,9,18)           64.5175         estimate D2E/DX2                !
 ! D39   D(6,8,10,19)         -126.5832         estimate D2E/DX2                !
 ! D40   D(6,8,10,20)           -6.3905         estimate D2E/DX2                !
 ! D41   D(6,8,10,21)          113.5328         estimate D2E/DX2                !
 ! D42   D(9,8,10,19)           59.5363         estimate D2E/DX2                !
 ! D43   D(9,8,10,20)          179.729          estimate D2E/DX2                !
 ! D44   D(9,8,10,21)          -60.3477         estimate D2E/DX2                !
 ! D45   D(4,22,25,26)          61.3311         estimate D2E/DX2                !
 ! D46   D(4,22,25,27)         -56.4645         estimate D2E/DX2                !
 ! D47   D(4,22,25,28)        -177.4953         estimate D2E/DX2                !
 ! D48   D(23,22,25,26)        -61.5059         estimate D2E/DX2                !
 ! D49   D(23,22,25,27)       -179.3014         estimate D2E/DX2                !
 ! D50   D(23,22,25,28)         59.6677         estimate D2E/DX2                !
 ! D51   D(24,22,25,26)       -177.4425         estimate D2E/DX2                !
 ! D52   D(24,22,25,27)         64.7619         estimate D2E/DX2                !
 ! D53   D(24,22,25,28)        -56.2689         estimate D2E/DX2                !
 ! D54   D(22,25,28,29)       -179.6082         estimate D2E/DX2                !
 ! D55   D(26,25,28,29)        -58.9201         estimate D2E/DX2                !
 ! D56   D(27,25,28,29)         59.6028         estimate D2E/DX2                !
 ! D57   D(25,28,29,30)        179.9288         estimate D2E/DX2                !
 ! D58   D(25,28,29,31)        -60.8063         estimate D2E/DX2                !
 ! D59   D(25,28,29,32)         60.6334         estimate D2E/DX2                !
 --------------------------------------------------------------------------------
 Trust Radius=3.00D-01 FncErr=1.00D-07 GrdErr=1.00D-06
 Number of optimizations in scan=  37
 Number of steps in this run=    155 maximum allowed number of steps=    192.
 GradGradGradGradGradGradGradGradGradGradGradGradGradGradGradGradGradGrad

                          Input orientation:                          
 ---------------------------------------------------------------------
 Center     Atomic      Atomic             Coordinates (Angstroms)
 Number     Number       Type             X           Y           Z
 ---------------------------------------------------------------------
      1          6           0        1.535375    2.827778    0.468333
      2          6           0        0.400856    2.079818   -0.214228
      3          8           0       -0.513812    2.684440   -0.765050
      4          7           0        0.444081    0.700597   -0.201275
      5          6           0       -0.707390    0.008276   -0.745707
      6          6           0       -1.751724   -0.296975    0.351523
      7          8           0       -1.499932   -0.064218    1.528990
      8          7           0       -2.935189   -0.860789   -0.051994
      9          6           0       -3.330491   -1.087339   -1.432213
     10          6           0       -3.958663   -1.141044    0.945891
     11          1           0        1.447695    3.876499    0.186354
     12          1           0        2.524103    2.456166    0.184886
     13          1           0        1.446142    2.750465    1.557331
     14          1           0       -1.140694    0.652206   -1.512483
     15          1           0       -0.383866   -0.927392   -1.216801
     16          1           0       -2.495779   -0.951533   -2.116725
     17          1           0       -3.700706   -2.112972   -1.551570
     18          1           0       -4.134719   -0.401519   -1.731722
     19          1           0       -4.272749   -2.189981    0.883821
     20          1           0       -3.543071   -0.939234    1.931290
     21          1           0       -4.840048   -0.506564    0.786618
     22          6           0        1.420998   -0.089808    0.542623
     23          1           0        1.872207    0.509498    1.333869
     24          1           0        0.902572   -0.910735    1.043584
     25          6           0        2.524114   -0.646227   -0.359797
     26          1           0        3.082384    0.178909   -0.834254
     27          1           0        2.087717   -1.247190   -1.176779
     28          8           0        3.373740   -1.435811    0.446097
     29          6           0        4.447232   -2.004251   -0.274002
     30          1           0        5.039532   -2.589045    0.433461
     31          1           0        4.094068   -2.669750   -1.077513
     32          1           0        5.091152   -1.233137   -0.725306
 ---------------------------------------------------------------------
                    Distance matrix (angstroms):
                    1          2          3          4          5
     1  C    0.000000
     2  C    1.520680   0.000000
     3  O    2.396027   1.227025   0.000000
     4  N    2.482780   1.379959   2.273991   0.000000
     5  C    3.801773   2.408727   2.683226   1.449690   0.000000
     6  C    4.536821   3.256197   3.415845   2.474327   1.545227
     7  O    4.324549   3.353907   3.713512   2.712553   2.409901
     8  N    5.819124   4.450021   4.352030   3.725544   2.489900
     9  C    6.528160   5.043543   4.754483   4.354230   2.924435
    10  C    6.794414   5.543035   5.424818   4.908338   3.840992
    11  H    1.089502   2.117640   2.484690   3.353185   4.525072
    12  H    1.093627   2.192968   3.191146   2.749115   4.159413
    13  H    1.095380   2.163518   3.039611   2.880760   4.178670
    14  H    3.977196   2.469801   2.254243   2.057455   1.091029
    15  H    4.541417   3.265617   3.642293   2.089770   1.096390
    16  H    6.100485   4.604246   4.356090   3.878306   2.449338
    17  H    7.477136   6.015878   5.812923   5.188326   3.756201
    18  H    6.886114   5.388067   4.854747   4.952003   3.589811
    19  H    7.686666   6.424911   6.372469   5.637496   4.494383
    20  H    6.490088   5.410405   5.438536   4.809809   4.013125
    21  H    7.201747   5.929430   5.595221   5.509554   4.437560
    22  C    2.920772   2.514118   3.626286   1.460305   2.489870
    23  H    2.497405   2.650921   3.850834   2.105405   3.351146
    24  H    3.835079   3.282867   4.266449   2.087170   2.576455
    25  C    3.705687   3.458430   4.526209   2.483063   3.319626
    26  H    3.332638   3.344918   4.383503   2.762872   3.794647
    27  H    4.429090   3.852400   4.732355   2.728923   3.094292
    28  O    4.643089   4.651206   5.792789   3.683237   4.490145
    29  C    5.690209   5.749465   6.843750   4.831843   5.553638
    30  H    6.451535   6.613252   7.751497   5.687073   6.415889
    31  H    6.257744   6.078114   7.070894   5.044744   5.507805
    32  H    5.528052   5.765045   6.838466   5.060554   5.929976
                    6          7          8          9         10
     6  C    0.000000
     7  O    1.226378   0.000000
     8  N    1.371605   2.279035   0.000000
     9  C    2.509760   3.628560   1.453476   0.000000
    10  C    2.436453   2.746801   1.456646   2.460257   0.000000
    11  H    5.261316   5.101022   6.458202   7.077465   7.414940
    12  H    5.088246   4.934755   6.392353   7.031906   7.452872
    13  H    4.578997   4.074628   5.901453   6.817796   6.688021
    14  H    2.179179   3.145294   2.764488   2.797798   4.147324
    15  H    2.174420   3.087076   2.805434   2.958815   4.183546
    16  H    2.659758   3.882045   2.112920   1.088000   3.399347
    17  H    3.273857   4.304724   2.098263   1.096918   2.692303
    18  H    3.166939   4.205724   2.114542   1.098562   2.783434
    19  H    3.197246   3.552974   2.105129   2.732706   1.096709
    20  H    2.473274   2.258742   2.075835   3.373467   1.088327
    21  H    3.125857   3.450096   2.111216   2.745774   1.097621
    22  C    3.185216   3.083084   4.463670   5.241345   5.496224
    23  H    3.840349   3.426156   5.187423   6.104848   6.072385
    24  H    2.810861   2.593113   3.991390   4.907095   4.867668
    25  C    4.348648   4.483213   5.472181   5.968338   6.631445
    26  H    5.000113   5.161555   6.156630   6.563985   7.381567
    27  H    4.240274   4.646701   5.161786   5.426581   6.409033
    28  O    5.251312   5.177509   6.354631   6.971097   7.355326
    29  C    6.460118   6.510243   7.473750   7.916764   8.537701
    30  H    7.168086   7.095035   8.174271   8.705926   9.128352
    31  H    6.468809   6.698917   7.330381   7.599600   8.442605
    32  H    6.990058   7.063329   8.063135   8.452517   9.203289
                   11         12         13         14         15
    11  H    0.000000
    12  H    1.782134   0.000000
    13  H    1.774129   1.769807   0.000000
    14  H    4.470109   4.423355   4.529699   0.000000
    15  H    5.329243   4.676481   4.956952   1.776329   0.000000
    16  H    6.645679   6.489148   6.537753   2.184798   2.295784
    17  H    8.087038   7.914578   7.733584   3.768474   3.538234
    18  H    7.289979   7.495309   7.204088   3.181601   3.822379
    19  H    8.367325   8.262711   7.587314   4.861077   4.596755
    20  H    7.151492   7.168631   6.216588   4.490397   4.459954
    21  H    7.688125   7.960563   7.121687   4.507087   4.903911
    22  C    3.982365   2.797642   3.016192   3.366944   2.656060
    23  H    3.582415   2.352583   2.292030   4.147247   3.696003
    24  H    4.893834   3.834416   3.736815   3.626458   2.600873
    25  C    4.681027   3.149845   4.046594   4.055297   3.044644
    26  H    4.169655   2.556604   3.874257   4.303300   3.658570
    27  H    5.340407   3.969812   4.885511   3.760723   2.492508
    28  O    5.656656   3.992192   4.740821   5.345649   4.140450
    29  C    6.617580   4.878967   5.913345   6.309954   5.038651
    30  H    7.400379   5.642989   6.533445   7.244833   5.907428
    31  H    7.173146   5.507582   6.582754   6.215088   4.806985
    32  H    6.341473   4.585755   5.862219   6.558206   5.505531
                   16         17         18         19         20
    16  H    0.000000
    17  H    1.766406   0.000000
    18  H    1.771120   1.774794   0.000000
    19  H    3.700629   2.502857   3.171548   0.000000
    20  H    4.181315   3.678699   3.749245   1.787174   0.000000
    21  H    3.758057   3.057085   2.617357   1.779092   1.783151
    22  C    4.812052   5.891578   6.011306   6.078314   5.224165
    23  H    5.755042   6.801505   6.805216   6.726828   5.637461
    24  H    4.640906   5.419443   5.773727   5.333474   4.533495
    25  C    5.327226   6.505386   6.803096   7.080050   6.491969
    26  H    5.834255   7.195663   7.295815   7.915896   7.266026
    27  H    4.688214   5.864801   6.304112   6.752070   6.438999
    28  O    6.422915   7.382209   7.886039   7.696049   7.091873
    29  C    7.260113   8.248205   8.851191   8.798473   8.357183
    30  H    8.121934   8.975453   9.676785   9.331702   8.867155
    31  H    6.889000   7.829000   8.560712   8.607011   8.388890
    32  H    7.718605   8.874322   9.317787   9.549214   9.038456
                   21         22         23         24         25
    21  H    0.000000
    22  C    6.279643   0.000000
    23  H    6.810744   1.090334   0.000000
    24  H    5.762558   1.092542   1.743995   0.000000
    25  C    7.454170   1.529977   2.151555   2.160750   0.000000
    26  H    8.115542   2.174443   2.504910   3.076553   1.103460
    27  H    7.238604   2.177244   3.071767   2.539248   1.104110
    28  O    8.273196   2.373656   2.612847   2.596029   1.412364
    29  C    9.466866   3.672882   3.941438   3.936550   2.355838
    30  H   10.102849   4.399078   4.521466   4.505931   3.275840
    31  H    9.379381   4.052930   4.567171   4.216495   2.659796
    32  H   10.071870   4.047824   4.199832   4.558192   2.658523
                   26         27         28         29         30
    26  H    0.000000
    27  H    1.772130   0.000000
    28  O    2.081227   2.079221   0.000000
    29  C    2.634935   2.637320   1.412109   0.000000
    30  H    3.619268   3.620312   2.026073   1.092386   0.000000
    31  H    3.032744   2.461499   2.088747   1.101473   1.784225
    32  H    2.457823   3.037210   2.088723   1.101329   1.784346
                   31         32
    31  H    0.000000
    32  H    1.783839   0.000000
 Stoichiometry    C9H18N2O3
 Framework group  C1[X(C9H18N2O3)]
 Deg. of freedom    90
 Full point group                 C1      NOp   1
 Largest Abelian subgroup         C1      NOp   1
 Largest concise Abelian subgroup C1      NOp   1
                         Standard orientation:                         
 ---------------------------------------------------------------------
 Center     Atomic      Atomic             Coordinates (Angstroms)
 Number     Number       Type             X           Y           Z
 ---------------------------------------------------------------------
      1          6           0        1.535375    2.827778    0.468333
      2          6           0        0.400856    2.079818   -0.214228
      3          8           0       -0.513812    2.684440   -0.765050
      4          7           0        0.444081    0.700597   -0.201275
      5          6           0       -0.707390    0.008276   -0.745707
      6          6           0       -1.751724   -0.296975    0.351523
      7          8           0       -1.499932   -0.064218    1.528990
      8          7           0       -2.935189   -0.860789   -0.051994
      9          6           0       -3.330491   -1.087339   -1.432213
     10          6           0       -3.958663   -1.141044    0.945891
     11          1           0        1.447695    3.876499    0.186354
     12          1           0        2.524103    2.456166    0.184886
     13          1           0        1.446142    2.750465    1.557331
     14          1           0       -1.140694    0.652206   -1.512483
     15          1           0       -0.383866   -0.927392   -1.216801
     16          1           0       -2.495779   -0.951533   -2.116725
     17          1           0       -3.700706   -2.112972   -1.551570
     18          1           0       -4.134719   -0.401519   -1.731722
     19          1           0       -4.272749   -2.189981    0.883821
     20          1           0       -3.543071   -0.939234    1.931290
     21          1           0       -4.840048   -0.506564    0.786618
     22          6           0        1.420998   -0.089808    0.542623
     23          1           0        1.872207    0.509498    1.333869
     24          1           0        0.902572   -0.910735    1.043584
     25          6           0        2.524114   -0.646227   -0.359797
     26          1           0        3.082384    0.178909   -0.834254
     27          1           0        2.087717   -1.247190   -1.176779
     28          8           0        3.373740   -1.435811    0.446097
     29          6           0        4.447232   -2.004251   -0.274002
     30          1           0        5.039532   -2.589045    0.433461
     31          1           0        4.094068   -2.669750   -1.077513
     32          1           0        5.091152   -1.233137   -0.725306
 ---------------------------------------------------------------------
 Rotational constants (GHZ):      0.8585627      0.3609679      0.2927178
 Standard basis: 6-31G(d,p) (6D, 7F)
 There are   300 symmetry adapted basis functions of A   symmetry.
 Integral buffers will be    131072 words long.
 Raffenetti 2 integral format.
 Two-electron integral symmetry is turned on.
   300 basis functions,   518 primitive gaussians,   300 cartesian basis functions
    55 alpha electrons       55 beta electrons
       nuclear repulsion energy       958.3588852623 Hartrees.
 NAtoms=   32 NActive=   32 NUniq=   32 SFac= 1.00D+00 NAtFMM=   60 NAOKFM=F Big=F
 One-electron integrals computed using PRISM.
 NBasis=   300 RedAO= T  NBF=   300
 NBsUse=   300 1.00D-06 NBFU=   300
 Harris functional with IExCor=  402 diagonalized for initial guess.
 ExpMin= 1.61D-01 ExpMax= 5.48D+03 ExpMxC= 8.25D+02 IAcc=1 IRadAn=         1 AccDes= 0.00D+00
 HarFok:  IExCor=  402 AccDes= 0.00D+00 IRadAn=         1 IDoV= 1
 ScaDFX=  1.000000  1.000000  1.000000  1.000000
 FoFCou: FMM=F IPFlag=           0 FMFlag=      100000 FMFlg1=           0
         NFxFlg=           0 DoJE=T BraDBF=F KetDBF=T FulRan=T
         Omega=  0.000000  0.000000  1.000000  0.000000  0.000000 ICntrl=     500 IOpCl=  0
         NMat0=    1 NMatS0=    1 NMatT0=    0 NMatD0=    1 NMtDS0=    0 NMtDT0=    0
         I1Cent=           4 NGrid=           0.
 Petite list used in FoFCou.
 Initial guess orbital symmetries:
       Occupied  (A) (A) (A) (A) (A) (A) (A) (A) (A) (A) (A) (A)
                 (A) (A) (A) (A) (A) (A) (A) (A) (A) (A) (A) (A)
                 (A) (A) (A) (A) (A) (A) (A) (A) (A) (A) (A) (A)
                 (A) (A) (A) (A) (A) (A) (A) (A) (A) (A) (A) (A)
                 (A) (A) (A) (A) (A) (A) (A)
       Virtual   (A) (A) (A) (A) (A) (A) (A) (A) (A) (A) (A) (A)
                 (A) (A) (A) (A) (A) (A) (A) (A) (A) (A) (A) (A)
                 (A) (A) (A) (A) (A) (A) (A) (A) (A) (A) (A) (A)
                 (A) (A) (A) (A) (A) (A) (A) (A) (A) (A) (A) (A)
                 (A) (A) (A) (A) (A) (A) (A) (A) (A) (A) (A) (A)
                 (A) (A) (A) (A) (A) (A) (A) (A) (A) (A) (A) (A)
                 (A) (A) (A) (A) (A) (A) (A) (A) (A) (A) (A) (A)
                 (A) (A) (A) (A) (A) (A) (A) (A) (A) (A) (A) (A)
                 (A) (A) (A) (A) (A) (A) (A) (A) (A) (A) (A) (A)
                 (A) (A) (A) (A) (A) (A) (A) (A) (A) (A) (A) (A)
                 (A) (A) (A) (A) (A) (A) (A) (A) (A) (A) (A) (A)
                 (A) (A) (A) (A) (A) (A) (A) (A) (A) (A) (A) (A)
                 (A) (A) (A) (A) (A) (A) (A) (A) (A) (A) (A) (A)
                 (A) (A) (A) (A) (A) (A) (A) (A) (A) (A) (A) (A)
                 (A) (A) (A) (A) (A) (A) (A) (A) (A) (A) (A) (A)
                 (A) (A) (A) (A) (A) (A) (A) (A) (A) (A) (A) (A)
                 (A) (A) (A) (A) (A) (A) (A) (A) (A) (A) (A) (A)
                 (A) (A) (A) (A) (A) (A) (A) (A) (A) (A) (A) (A)
                 (A) (A) (A) (A) (A) (A) (A) (A) (A) (A) (A) (A)
                 (A) (A) (A) (A) (A) (A) (A) (A) (A) (A) (A) (A)
                 (A) (A) (A) (A) (A)
 The electronic state of the initial guess is 1-A.
 Requested convergence on RMS density matrix=1.00D-08 within 128 cycles.
 Requested convergence on MAX density matrix=1.00D-06.
 Requested convergence on             energy=1.00D-06.
 No special actions if energy rises.
 Keep R1 ints in memory in canonical form, NReq=1033484950.
 Integral accuracy reduced to 1.0D-05 until final iterations.
 Initial convergence to 1.0D-05 achieved.  Increase integral accuracy.
 SCF Done:  E(RB3LYP) =  -688.997610789     A.U. after   14 cycles
             Convg  =    0.6187D-08             -V/T =  2.0093

 **********************************************************************

            Population analysis using the SCF density.

 **********************************************************************

 Orbital symmetries:
       Occupied  (A) (A) (A) (A) (A) (A) (A) (A) (A) (A) (A) (A)
                 (A) (A) (A) (A) (A) (A) (A) (A) (A) (A) (A) (A)
                 (A) (A) (A) (A) (A) (A) (A) (A) (A) (A) (A) (A)
                 (A) (A) (A) (A) (A) (A) (A) (A) (A) (A) (A) (A)
                 (A) (A) (A) (A) (A) (A) (A)
       Virtual   (A) (A) (A) (A) (A) (A) (A) (A) (A) (A) (A) (A)
                 (A) (A) (A) (A) (A) (A) (A) (A) (A) (A) (A) (A)
                 (A) (A) (A) (A) (A) (A) (A) (A) (A) (A) (A) (A)
                 (A) (A) (A) (A) (A) (A) (A) (A) (A) (A) (A) (A)
                 (A) (A) (A) (A) (A) (A) (A) (A) (A) (A) (A) (A)
                 (A) (A) (A) (A) (A) (A) (A) (A) (A) (A) (A) (A)
                 (A) (A) (A) (A) (A) (A) (A) (A) (A) (A) (A) (A)
                 (A) (A) (A) (A) (A) (A) (A) (A) (A) (A) (A) (A)
                 (A) (A) (A) (A) (A) (A) (A) (A) (A) (A) (A) (A)
                 (A) (A) (A) (A) (A) (A) (A) (A) (A) (A) (A) (A)
                 (A) (A) (A) (A) (A) (A) (A) (A) (A) (A) (A) (A)
                 (A) (A) (A) (A) (A) (A) (A) (A) (A) (A) (A) (A)
                 (A) (A) (A) (A) (A) (A) (A) (A) (A) (A) (A) (A)
                 (A) (A) (A) (A) (A) (A) (A) (A) (A) (A) (A) (A)
                 (A) (A) (A) (A) (A) (A) (A) (A) (A) (A) (A) (A)
                 (A) (A) (A) (A) (A) (A) (A) (A) (A) (A) (A) (A)
                 (A) (A) (A) (A) (A) (A) (A) (A) (A) (A) (A) (A)
                 (A) (A) (A) (A) (A) (A) (A) (A) (A) (A) (A) (A)
                 (A) (A) (A) (A) (A) (A) (A) (A) (A) (A) (A) (A)
                 (A) (A) (A) (A) (A) (A) (A) (A) (A) (A) (A) (A)
                 (A) (A) (A) (A) (A)
 The electronic state is 1-A.
 Alpha  occ. eigenvalues --  -19.15440 -19.10898 -19.10179 -14.36742 -14.35864
 Alpha  occ. eigenvalues --  -10.28379 -10.27895 -10.23711 -10.23263 -10.23020
 Alpha  occ. eigenvalues --  -10.22629 -10.21881 -10.21302 -10.18419  -1.03848
 Alpha  occ. eigenvalues --   -1.03286  -1.02071  -0.93409  -0.92706  -0.77059
 Alpha  occ. eigenvalues --   -0.75136  -0.72890  -0.71460  -0.68412  -0.66780
 Alpha  occ. eigenvalues --   -0.62189  -0.56316  -0.53253  -0.50888  -0.50180
 Alpha  occ. eigenvalues --   -0.49420  -0.48105  -0.47125  -0.47070  -0.46089
 Alpha  occ. eigenvalues --   -0.44972  -0.43237  -0.42286  -0.41571  -0.40928
 Alpha  occ. eigenvalues --   -0.40721  -0.40498  -0.38954  -0.38537  -0.38259
 Alpha  occ. eigenvalues --   -0.37314  -0.35843  -0.35287  -0.34409  -0.32462
 Alpha  occ. eigenvalues --   -0.26141  -0.25345  -0.24336  -0.23950  -0.23117
 Alpha virt. eigenvalues --    0.02855   0.03377   0.07549   0.08592   0.09391
 Alpha virt. eigenvalues --    0.10761   0.11750   0.13144   0.13853   0.14397
 Alpha virt. eigenvalues --    0.14647   0.15590   0.15870   0.16375   0.16492
 Alpha virt. eigenvalues --    0.16760   0.17521   0.17676   0.18048   0.19160
 Alpha virt. eigenvalues --    0.20209   0.20960   0.21669   0.22212   0.23450
 Alpha virt. eigenvalues --    0.23779   0.25940   0.28223   0.29049   0.33226
 Alpha virt. eigenvalues --    0.35311   0.38813   0.39966   0.48296   0.49222
 Alpha virt. eigenvalues --    0.49844   0.50022   0.50743   0.51804   0.53179
 Alpha virt. eigenvalues --    0.54669   0.55977   0.56000   0.56420   0.57482
 Alpha virt. eigenvalues --    0.59176   0.60628   0.61733   0.64075   0.64216
 Alpha virt. eigenvalues --    0.65732   0.67976   0.69177   0.70837   0.71551
 Alpha virt. eigenvalues --    0.71897   0.74215   0.74832   0.76568   0.77106
 Alpha virt. eigenvalues --    0.77817   0.79153   0.79879   0.81201   0.82525
 Alpha virt. eigenvalues --    0.83729   0.83884   0.85275   0.85578   0.85833
 Alpha virt. eigenvalues --    0.86836   0.87575   0.88306   0.89652   0.90296
 Alpha virt. eigenvalues --    0.91051   0.91303   0.92704   0.93621   0.94078
 Alpha virt. eigenvalues --    0.95651   0.96955   0.97263   0.98031   0.99906
 Alpha virt. eigenvalues --    1.01218   1.02985   1.04663   1.05179   1.10943
 Alpha virt. eigenvalues --    1.13828   1.14938   1.17338   1.19723   1.21087
 Alpha virt. eigenvalues --    1.27677   1.28162   1.29390   1.31581   1.32570
 Alpha virt. eigenvalues --    1.34595   1.36165   1.36814   1.37556   1.39012
 Alpha virt. eigenvalues --    1.39519   1.44714   1.47087   1.50723   1.54218
 Alpha virt. eigenvalues --    1.55198   1.57769   1.61814   1.63695   1.66097
 Alpha virt. eigenvalues --    1.68175   1.69672   1.71428   1.73881   1.74691
 Alpha virt. eigenvalues --    1.76363   1.78195   1.79269   1.80211   1.83023
 Alpha virt. eigenvalues --    1.83755   1.85602   1.86389   1.87627   1.88304
 Alpha virt. eigenvalues --    1.88921   1.90001   1.91474   1.91910   1.94048
 Alpha virt. eigenvalues --    1.95885   1.97280   1.98161   1.99674   2.00221
 Alpha virt. eigenvalues --    2.01674   2.02395   2.02788   2.02935   2.03086
 Alpha virt. eigenvalues --    2.03388   2.03546   2.05287   2.05736   2.07665
 Alpha virt. eigenvalues --    2.07817   2.08838   2.10055   2.10527   2.11117
 Alpha virt. eigenvalues --    2.12891   2.14004   2.16136   2.17599   2.20947
 Alpha virt. eigenvalues --    2.22446   2.23799   2.25815   2.26444   2.28851
 Alpha virt. eigenvalues --    2.30390   2.33980   2.35448   2.38216   2.40625
 Alpha virt. eigenvalues --    2.41228   2.44174   2.45238   2.50006   2.50905
 Alpha virt. eigenvalues --    2.52017   2.53766   2.54265   2.56797   2.57262
 Alpha virt. eigenvalues --    2.58470   2.60054   2.62533   2.63904   2.64889
 Alpha virt. eigenvalues --    2.65491   2.66836   2.69074   2.69151   2.69747
 Alpha virt. eigenvalues --    2.70868   2.71432   2.74979   2.78571   2.78952
 Alpha virt. eigenvalues --    2.80414   2.82061   2.83937   2.84921   2.86431
 Alpha virt. eigenvalues --    2.87220   2.88766   2.90627   2.91045   2.92108
 Alpha virt. eigenvalues --    2.97190   2.97630   2.98634   3.04790   3.10614
 Alpha virt. eigenvalues --    3.11786   3.13465   3.14447   3.17185   3.18165
 Alpha virt. eigenvalues --    3.23402   3.26968   3.27970   3.33101   3.36623
 Alpha virt. eigenvalues --    3.37430   3.38470   3.41893   3.42866   3.43293
 Alpha virt. eigenvalues --    3.43663   3.43796   3.46496   3.48474   3.49280
 Alpha virt. eigenvalues --    3.55650   3.95414   4.01027   4.08105   4.12596
 Alpha virt. eigenvalues --    4.19002   4.32130   4.38290   4.40563   4.45042
 Alpha virt. eigenvalues --    4.49211   4.52125   4.64805   4.68933   4.75870
          Condensed to atoms (all electrons):
              1          2          3          4          5          6
     1  C    5.156565   0.349695  -0.081097  -0.120814   0.006669  -0.000274
     2  C    0.349695   4.351486   0.586158   0.257217  -0.035105   0.001574
     3  O   -0.081097   0.586158   8.081682  -0.097982  -0.007645   0.000303
     4  N   -0.120814   0.257217  -0.097982   7.087623   0.294185  -0.053304
     5  C    0.006669  -0.035105  -0.007645   0.294185   5.111862   0.294016
     6  C   -0.000274   0.001574   0.000303  -0.053304   0.294016   4.423481
     7  O   -0.000129   0.006191  -0.000467  -0.004357  -0.091639   0.580886
     8  N   -0.000003   0.000090  -0.000111   0.002859  -0.111267   0.273983
     9  C    0.000000  -0.000026   0.000010   0.000329  -0.000150  -0.027676
    10  C    0.000000  -0.000004   0.000001  -0.000101   0.005372  -0.026372
    11  H    0.367932  -0.023246   0.004963   0.004547  -0.000148   0.000001
    12  H    0.355106  -0.020015   0.002235   0.002144  -0.000175   0.000010
    13  H    0.367474  -0.021731   0.000560   0.001573  -0.000269   0.000038
    14  H    0.001113  -0.004533   0.026720  -0.037772   0.361496  -0.026215
    15  H   -0.000111   0.005122   0.000839  -0.041741   0.361996  -0.036857
    16  H   -0.000001  -0.000047  -0.000049   0.000160   0.008455  -0.010002
    17  H    0.000000  -0.000001   0.000000  -0.000006  -0.000355   0.001797
    18  H    0.000000   0.000008   0.000000  -0.000007  -0.000279  -0.000076
    19  H    0.000000   0.000000   0.000000   0.000001  -0.000121   0.002022
    20  H    0.000000  -0.000005   0.000000  -0.000010   0.001203  -0.002604
    21  H    0.000000   0.000001   0.000000   0.000002  -0.000110  -0.000048
    22  C    0.000132  -0.023581   0.002458   0.244943  -0.043258  -0.004645
    23  H    0.007937  -0.009030   0.000118  -0.028532   0.004150   0.000199
    24  H   -0.000320   0.002607  -0.000062  -0.033407  -0.003527   0.003925
    25  C   -0.001583   0.000192  -0.000040  -0.054466  -0.004091   0.000155
    26  H   -0.000618   0.001397  -0.000039   0.003590   0.000124  -0.000010
    27  H    0.000092  -0.000090  -0.000001   0.002149   0.000632   0.000167
    28  O    0.000001   0.000014   0.000000   0.002122   0.000018   0.000001
    29  C    0.000000  -0.000001   0.000000  -0.000128  -0.000001   0.000000
    30  H    0.000000   0.000000   0.000000   0.000001   0.000000   0.000000
    31  H    0.000000   0.000000   0.000000   0.000012  -0.000002   0.000000
    32  H   -0.000001   0.000000   0.000000   0.000008   0.000000   0.000000
              7          8          9         10         11         12
     1  C   -0.000129  -0.000003   0.000000   0.000000   0.367932   0.355106
     2  C    0.006191   0.000090  -0.000026  -0.000004  -0.023246  -0.020015
     3  O   -0.000467  -0.000111   0.000010   0.000001   0.004963   0.002235
     4  N   -0.004357   0.002859   0.000329  -0.000101   0.004547   0.002144
     5  C   -0.091639  -0.111267  -0.000150   0.005372  -0.000148  -0.000175
     6  C    0.580886   0.273983  -0.027676  -0.026372   0.000001   0.000010
     7  O    8.090148  -0.090100   0.002684  -0.012390   0.000000   0.000001
     8  N   -0.090100   7.013391   0.301257   0.291509   0.000000   0.000000
     9  C    0.002684   0.301257   4.801930  -0.051849   0.000000   0.000000
    10  C   -0.012390   0.291509  -0.051849   4.819624   0.000000   0.000000
    11  H    0.000000   0.000000   0.000000   0.000000   0.549381  -0.023933
    12  H    0.000001   0.000000   0.000000   0.000000  -0.023933   0.593389
    13  H    0.000131   0.000000   0.000000   0.000000  -0.021152  -0.029192
    14  H    0.001115   0.001244  -0.001653  -0.000227  -0.000024  -0.000063
    15  H    0.000856   0.002522  -0.001972  -0.000236   0.000004  -0.000005
    16  H    0.000078  -0.028306   0.384683   0.004285   0.000000   0.000000
    17  H   -0.000044  -0.044354   0.383059  -0.003179   0.000000   0.000000
    18  H   -0.000010  -0.045920   0.384368  -0.001370   0.000000   0.000000
    19  H    0.000625  -0.044238  -0.002545   0.384384   0.000000   0.000000
    20  H    0.023900  -0.036028   0.004336   0.383710   0.000000   0.000000
    21  H    0.000679  -0.045594  -0.001144   0.387965   0.000000   0.000000
    22  C    0.001790   0.000193  -0.000008  -0.000004   0.000342  -0.001086
    23  H   -0.000022  -0.000002   0.000000   0.000000  -0.000019  -0.002091
    24  H    0.007870  -0.000295  -0.000006   0.000019  -0.000011   0.000205
    25  C    0.000369   0.000013  -0.000002   0.000000   0.000015  -0.000136
    26  H   -0.000003   0.000000   0.000000   0.000000  -0.000038   0.003515
    27  H    0.000010  -0.000003   0.000001   0.000000   0.000001  -0.000093
    28  O    0.000000   0.000000   0.000000   0.000000   0.000000  -0.000060
    29  C    0.000000   0.000000   0.000000   0.000000   0.000000  -0.000004
    30  H    0.000000   0.000000   0.000000   0.000000   0.000000   0.000000
    31  H    0.000000   0.000000   0.000000   0.000000   0.000000   0.000000
    32  H    0.000000   0.000000   0.000000   0.000000   0.000000   0.000005
             13         14         15         16         17         18
     1  C    0.367474   0.001113  -0.000111  -0.000001   0.000000   0.000000
     2  C   -0.021731  -0.004533   0.005122  -0.000047  -0.000001   0.000008
     3  O    0.000560   0.026720   0.000839  -0.000049   0.000000   0.000000
     4  N    0.001573  -0.037772  -0.041741   0.000160  -0.000006  -0.000007
     5  C   -0.000269   0.361496   0.361996   0.008455  -0.000355  -0.000279
     6  C    0.000038  -0.026215  -0.036857  -0.010002   0.001797  -0.000076
     7  O    0.000131   0.001115   0.000856   0.000078  -0.000044  -0.000010
     8  N    0.000000   0.001244   0.002522  -0.028306  -0.044354  -0.045920
     9  C    0.000000  -0.001653  -0.001972   0.384683   0.383059   0.384368
    10  C    0.000000  -0.000227  -0.000236   0.004285  -0.003179  -0.001370
    11  H   -0.021152  -0.000024   0.000004   0.000000   0.000000   0.000000
    12  H   -0.029192  -0.000063  -0.000005   0.000000   0.000000   0.000000
    13  H    0.558305  -0.000020  -0.000006   0.000000   0.000000   0.000000
    14  H   -0.000020   0.535980  -0.025254  -0.000074   0.000037   0.000510
    15  H   -0.000006  -0.025254   0.613043   0.001011   0.000169   0.000016
    16  H    0.000000  -0.000074   0.001011   0.569558  -0.026419  -0.030427
    17  H    0.000000   0.000037   0.000169  -0.026419   0.613442  -0.047067
    18  H    0.000000   0.000510   0.000016  -0.030427  -0.047067   0.609779
    19  H    0.000000  -0.000007   0.000027   0.000052   0.007067  -0.001723
    20  H    0.000000  -0.000028  -0.000035  -0.000241   0.000000  -0.000108
    21  H    0.000000   0.000023  -0.000008  -0.000049  -0.002127   0.006672
    22  C   -0.002487   0.004741  -0.000108   0.000006   0.000000   0.000000
    23  H    0.001697  -0.000232   0.000000   0.000000   0.000000   0.000000
    24  H    0.000164   0.000096  -0.002559   0.000001   0.000002  -0.000001
    25  C    0.000077   0.000094   0.001779   0.000000   0.000000   0.000000
    26  H    0.000052  -0.000005  -0.000217   0.000000   0.000000   0.000000
    27  H   -0.000006  -0.000143   0.003047  -0.000004   0.000000   0.000000
    28  O   -0.000003   0.000000  -0.000120   0.000000   0.000000   0.000000
    29  C    0.000000   0.000000   0.000003   0.000000   0.000000   0.000000
    30  H    0.000000   0.000000   0.000000   0.000000   0.000000   0.000000
    31  H    0.000000   0.000000   0.000004   0.000000   0.000000   0.000000
    32  H    0.000000   0.000000   0.000000   0.000000   0.000000   0.000000
             19         20         21         22         23         24
     1  C    0.000000   0.000000   0.000000   0.000132   0.007937  -0.000320
     2  C    0.000000  -0.000005   0.000001  -0.023581  -0.009030   0.002607
     3  O    0.000000   0.000000   0.000000   0.002458   0.000118  -0.000062
     4  N    0.000001  -0.000010   0.000002   0.244943  -0.028532  -0.033407
     5  C   -0.000121   0.001203  -0.000110  -0.043258   0.004150  -0.003527
     6  C    0.002022  -0.002604  -0.000048  -0.004645   0.000199   0.003925
     7  O    0.000625   0.023900   0.000679   0.001790  -0.000022   0.007870
     8  N   -0.044238  -0.036028  -0.045594   0.000193  -0.000002  -0.000295
     9  C   -0.002545   0.004336  -0.001144  -0.000008   0.000000  -0.000006
    10  C    0.384384   0.383710   0.387965  -0.000004   0.000000   0.000019
    11  H    0.000000   0.000000   0.000000   0.000342  -0.000019  -0.000011
    12  H    0.000000   0.000000   0.000000  -0.001086  -0.002091   0.000205
    13  H    0.000000   0.000000   0.000000  -0.002487   0.001697   0.000164
    14  H   -0.000007  -0.000028   0.000023   0.004741  -0.000232   0.000096
    15  H    0.000027  -0.000035  -0.000008  -0.000108   0.000000  -0.002559
    16  H    0.000052  -0.000241  -0.000049   0.000006   0.000000   0.000001
    17  H    0.007067   0.000000  -0.002127   0.000000   0.000000   0.000002
    18  H   -0.001723  -0.000108   0.006672   0.000000   0.000000  -0.000001
    19  H    0.614355  -0.023844  -0.044841   0.000000   0.000000   0.000001
    20  H   -0.023844   0.513198  -0.025204  -0.000005   0.000000   0.000004
    21  H   -0.044841  -0.025204   0.608773   0.000000   0.000000  -0.000001
    22  C    0.000000  -0.000005   0.000000   4.905075   0.379429   0.377976
    23  H    0.000000   0.000000   0.000000   0.379429   0.588201  -0.028388
    24  H    0.000001   0.000004  -0.000001   0.377976  -0.028388   0.579414
    25  C    0.000000   0.000000   0.000000   0.351076  -0.043756  -0.045712
    26  H    0.000000   0.000000   0.000000  -0.037841  -0.008620   0.006251
    27  H    0.000000   0.000000   0.000000  -0.041457   0.006520  -0.007142
    28  O    0.000000   0.000000   0.000000  -0.039778   0.005326   0.005550
    29  C    0.000000   0.000000   0.000000   0.004333  -0.000088  -0.000092
    30  H    0.000000   0.000000   0.000000  -0.000249   0.000008   0.000009
    31  H    0.000000   0.000000   0.000000   0.000016   0.000046  -0.000054
    32  H    0.000000   0.000000   0.000000   0.000026  -0.000068   0.000045
             25         26         27         28         29         30
     1  C   -0.001583  -0.000618   0.000092   0.000001   0.000000   0.000000
     2  C    0.000192   0.001397  -0.000090   0.000014  -0.000001   0.000000
     3  O   -0.000040  -0.000039  -0.000001   0.000000   0.000000   0.000000
     4  N   -0.054466   0.003590   0.002149   0.002122  -0.000128   0.000001
     5  C   -0.004091   0.000124   0.000632   0.000018  -0.000001   0.000000
     6  C    0.000155  -0.000010   0.000167   0.000001   0.000000   0.000000
     7  O    0.000369  -0.000003   0.000010   0.000000   0.000000   0.000000
     8  N    0.000013   0.000000  -0.000003   0.000000   0.000000   0.000000
     9  C   -0.000002   0.000000   0.000001   0.000000   0.000000   0.000000
    10  C    0.000000   0.000000   0.000000   0.000000   0.000000   0.000000
    11  H    0.000015  -0.000038   0.000001   0.000000   0.000000   0.000000
    12  H   -0.000136   0.003515  -0.000093  -0.000060  -0.000004   0.000000
    13  H    0.000077   0.000052  -0.000006  -0.000003   0.000000   0.000000
    14  H    0.000094  -0.000005  -0.000143   0.000000   0.000000   0.000000
    15  H    0.001779  -0.000217   0.003047  -0.000120   0.000003   0.000000
    16  H    0.000000   0.000000  -0.000004   0.000000   0.000000   0.000000
    17  H    0.000000   0.000000   0.000000   0.000000   0.000000   0.000000
    18  H    0.000000   0.000000   0.000000   0.000000   0.000000   0.000000
    19  H    0.000000   0.000000   0.000000   0.000000   0.000000   0.000000
    20  H    0.000000   0.000000   0.000000   0.000000   0.000000   0.000000
    21  H    0.000000   0.000000   0.000000   0.000000   0.000000   0.000000
    22  C    0.351076  -0.037841  -0.041457  -0.039778   0.004333  -0.000249
    23  H   -0.043756  -0.008620   0.006520   0.005326  -0.000088   0.000008
    24  H   -0.045712   0.006251  -0.007142   0.005550  -0.000092   0.000009
    25  C    4.799262   0.357705   0.361594   0.231257  -0.033909   0.005305
    26  H    0.357705   0.689892  -0.062104  -0.038933  -0.006593  -0.000103
    27  H    0.361594  -0.062104   0.694422  -0.039222  -0.006253  -0.000111
    28  O    0.231257  -0.038933  -0.039222   8.205266   0.259069  -0.032871
    29  C   -0.033909  -0.006593  -0.006253   0.259069   4.707745   0.394782
    30  H    0.005305  -0.000103  -0.000111  -0.032871   0.394782   0.585217
    31  H   -0.009186  -0.002731   0.013487  -0.037696   0.369686  -0.034995
    32  H   -0.009076   0.013489  -0.002767  -0.037653   0.370359  -0.034929
             31         32
     1  C    0.000000  -0.000001
     2  C    0.000000   0.000000
     3  O    0.000000   0.000000
     4  N    0.000012   0.000008
     5  C   -0.000002   0.000000
     6  C    0.000000   0.000000
     7  O    0.000000   0.000000
     8  N    0.000000   0.000000
     9  C    0.000000   0.000000
    10  C    0.000000   0.000000
    11  H    0.000000   0.000000
    12  H    0.000000   0.000005
    13  H    0.000000   0.000000
    14  H    0.000000   0.000000
    15  H    0.000004   0.000000
    16  H    0.000000   0.000000
    17  H    0.000000   0.000000
    18  H    0.000000   0.000000
    19  H    0.000000   0.000000
    20  H    0.000000   0.000000
    21  H    0.000000   0.000000
    22  C    0.000016   0.000026
    23  H    0.000046  -0.000068
    24  H   -0.000054   0.000045
    25  C   -0.009186  -0.009076
    26  H   -0.002731   0.013489
    27  H    0.013487  -0.002767
    28  O   -0.037696  -0.037653
    29  C    0.369686   0.370359
    30  H   -0.034995  -0.034929
    31  H    0.663213  -0.052805
    32  H   -0.052805   0.660927
 Mulliken atomic charges:
              1
     1  C   -0.407766
     2  C    0.575663
     3  O   -0.518555
     4  N   -0.430839
     5  C   -0.152036
     6  C    0.605524
     7  O   -0.518174
     8  N   -0.440842
     9  C   -0.175627
    10  C   -0.181137
    11  H    0.141387
    12  H    0.120242
    13  H    0.144794
    14  H    0.163080
    15  H    0.118794
    16  H    0.127330
    17  H    0.117978
    18  H    0.125636
    19  H    0.108786
    20  H    0.161761
    21  H    0.115010
    22  C   -0.078031
    23  H    0.127217
    24  H    0.137440
    25  C    0.093062
    26  H    0.081839
    27  H    0.077275
    28  O   -0.482289
    29  C   -0.058908
    30  H    0.117938
    31  H    0.091006
    32  H    0.092440
 Sum of Mulliken atomic charges =   0.00000
 Mulliken charges with hydrogens summed into heavy atoms:
              1
     1  C   -0.001342
     2  C    0.575663
     3  O   -0.518555
     4  N   -0.430839
     5  C    0.129838
     6  C    0.605524
     7  O   -0.518174
     8  N   -0.440842
     9  C    0.195318
    10  C    0.204421
    22  C    0.186626
    25  C    0.252176
    28  O   -0.482289
    29  C    0.242476
 Sum of Mulliken charges with hydrogens summed into heavy atoms =   0.00000
 Electronic spatial extent (au):  <R**2>=           3990.0086
 Charge=              0.0000 electrons
 Dipole moment (field-independent basis, Debye):
    X=              0.5387    Y=             -3.2379    Z=             -2.3988  Tot=              4.0655
 Quadrupole moment (field-independent basis, Debye-Ang):
   XX=            -68.1094   YY=            -88.9964   ZZ=            -87.2986
   XY=              7.5510   XZ=              0.9599   YZ=              6.6581
 Traceless Quadrupole moment (field-independent basis, Debye-Ang):
   XX=             13.3587   YY=             -7.5283   ZZ=             -5.8305
   XY=              7.5510   XZ=              0.9599   YZ=              6.6581
 Octapole moment (field-independent basis, Debye-Ang**2):
  XXX=            -13.2392  YYY=            -21.2640  ZZZ=             -2.7993  XYY=             18.0948
  XXY=            -25.3293  XXZ=            -15.1509  XZZ=             -2.0959  YZZ=             -3.0388
  YYZ=             11.7576  XYZ=              3.2728
 Hexadecapole moment (field-independent basis, Debye-Ang**3):
 XXXX=          -3098.3003 YYYY=          -1296.2500 ZZZZ=           -441.9189 XXXY=            -52.4456
 XXXZ=            -33.9257 YYYX=             17.4061 YYYZ=             30.7207 ZZZX=             17.0066
 ZZZY=             -2.3692 XXYY=           -724.5805 XXZZ=           -640.8984 YYZZ=           -287.3770
 XXYZ=             10.1039 YYXZ=             -9.3602 ZZXY=              6.2118
 N-N= 9.583588852623D+02 E-N=-3.522668814948D+03  KE= 6.826231723705D+02
 Calling FoFJK, ICntrl=      2127 FMM=F ISym2X=0 I1Cent= 0 IOpClX= 0 NMat=1 NMatS=1 NMatT=0.
 ***** Axes restored to original set *****
 -------------------------------------------------------------------
 Center     Atomic                   Forces (Hartrees/Bohr)
 Number     Number              X              Y              Z
 -------------------------------------------------------------------
      1        6          -0.000000821    0.000003278   -0.000002394
      2        6          -0.000017679   -0.000001805    0.000031199
      3        8          -0.000000898   -0.000000539   -0.000004123
      4        7           0.000017339    0.000011805   -0.000053250
      5        6           0.000011288   -0.000039804    0.000025282
      6        6          -0.000014388    0.000028604   -0.000004425
      7        8           0.000001270    0.000001628   -0.000000201
      8        7           0.000001392   -0.000000784    0.000001981
      9        6          -0.000000520   -0.000002406    0.000000123
     10        6           0.000000271   -0.000000394    0.000001763
     11        1          -0.000002172    0.000000615   -0.000006098
     12        1          -0.000001180    0.000001182   -0.000003678
     13        1          -0.000001098    0.000002771   -0.000004708
     14        1          -0.000000153   -0.000002947   -0.000002074
     15        1          -0.000000885   -0.000002746   -0.000000570
     16        1           0.000000901   -0.000004335    0.000000599
     17        1           0.000001362   -0.000003896    0.000002915
     18        1           0.000000728   -0.000004125    0.000000846
     19        1           0.000000567   -0.000000717    0.000002631
     20        1           0.000000509    0.000001004    0.000000906
     21        1           0.000000030   -0.000001165    0.000000672
     22        6          -0.000002307    0.000003254    0.000002491
     23        1           0.000000297    0.000001344   -0.000001919
     24        1           0.000000606    0.000001073    0.000000188
     25        6          -0.000000187    0.000002097   -0.000003609
     26        1          -0.000000165    0.000001292   -0.000000342
     27        1           0.000000361   -0.000000994    0.000002160
     28        8          -0.000000065    0.000001251    0.000006534
     29        6           0.000003877    0.000000485   -0.000000580
     30        1           0.000000739    0.000002784    0.000003177
     31        1           0.000000711    0.000000550    0.000003242
     32        1           0.000000269    0.000001642    0.000001261
 -------------------------------------------------------------------
 Cartesian Forces:  Max     0.000053250 RMS     0.000009327

 GradGradGradGradGradGradGradGradGradGradGradGradGradGradGradGradGradGrad
 Berny optimization.
 Internal  Forces:  Max     0.000032479 RMS     0.000004503
 Search for a local minimum.
 Step number   1 out of a maximum of  155 on scan point     1 out of    37
 All quantities printed in internal units (Hartrees-Bohrs-Radians)
 Mixed Optimization -- En-DIIS/RFO-DIIS
 Second derivative matrix not updated -- first step.
 ITU=  0
     Eigenvalues ---    0.00369   0.00492   0.00692   0.00894   0.00942
     Eigenvalues ---    0.00984   0.01081   0.01223   0.01288   0.01528
     Eigenvalues ---    0.01532   0.01957   0.02067   0.03005   0.04177
     Eigenvalues ---    0.05321   0.05465   0.05875   0.06480   0.06922
     Eigenvalues ---    0.07275   0.07477   0.07479   0.07494   0.07659
     Eigenvalues ---    0.09421   0.09761   0.10037   0.10506   0.10609
     Eigenvalues ---    0.11129   0.12858   0.13633   0.16000   0.16000
     Eigenvalues ---    0.16000   0.16000   0.16000   0.16000   0.16000
     Eigenvalues ---    0.16000   0.16000   0.16000   0.16000   0.16000
     Eigenvalues ---    0.21909   0.21918   0.22026   0.24253   0.24639
     Eigenvalues ---    0.24821   0.24904   0.24991   0.24999   0.25000
     Eigenvalues ---    0.25000   0.25000   0.28061   0.29426   0.30301
     Eigenvalues ---    0.33232   0.33302   0.33520   0.33536   0.33842
     Eigenvalues ---    0.33947   0.34025   0.34049   0.34084   0.34198
     Eigenvalues ---    0.34397   0.34520   0.34538   0.34694   0.34774
     Eigenvalues ---    0.34870   0.35007   0.35045   0.36926   0.37387
     Eigenvalues ---    0.37793   0.38286   0.43631   0.43671   0.49110
     Eigenvalues ---    0.50669   0.92337   0.926121000.000001000.00000
     Eigenvalues --- 1000.000001000.000001000.000001000.000001000.00000
     Eigenvalues --- 1000.000001000.000001000.000001000.000001000.00000
     Eigenvalues --- 1000.000001000.000001000.000001000.000001000.00000
     Eigenvalues --- 1000.000001000.000001000.000001000.000001000.00000
     Eigenvalues --- 1000.000001000.000001000.000001000.000001000.00000
     Eigenvalues --- 1000.000001000.000001000.000001000.000001000.00000
     Eigenvalues --- 1000.000001000.000001000.000001000.000001000.00000
     Eigenvalues --- 1000.000001000.000001000.000001000.000001000.00000
     Eigenvalues --- 1000.000001000.000001000.000001000.000001000.00000
     Eigenvalues --- 1000.000001000.000001000.000001000.000001000.00000
     Eigenvalues --- 1000.000001000.000001000.000001000.000001000.00000
 RFO step:  Lambda= 0.00000000D+00 EMin= 3.69412443D-03
 Linear search not attempted -- first point.
 Iteration  1 RMS(Cart)=  0.00003530 RMS(Int)=  0.00000000
 Iteration  2 RMS(Cart)=  0.00000000 RMS(Int)=  0.00000000
 Iteration  1 RMS(Cart)=  0.00000000 RMS(Int)=  0.00000000
 Variable       Old X    -DE/DX   Delta X   Delta X   Delta X     New X
                                 (Linear)    (Quad)   (Total)
    R1        2.87367   0.00000   0.00000   0.00000   0.00000   2.87367
    R2        2.05886   0.00000   0.00000   0.00000   0.00000   2.05886
    R3        2.06666   0.00000   0.00000   0.00000   0.00000   2.06666
    R4        2.06997   0.00000   0.00000   0.00000   0.00000   2.06997
    R5        2.31874   0.00000   0.00000   0.00000   0.00000   2.31874
    R6        2.60774   0.00000   0.00000   0.00000   0.00000   2.60774
    R7        2.73952   0.00000   0.00000   0.00000   0.00000   2.73952
    R8        2.75958   0.00000   0.00000   0.00000   0.00000   2.75958
    R9        2.92006   0.00000   0.00000  -0.00001  -0.00001   2.92005
   R10        2.06175   0.00000   0.00000   0.00000   0.00000   2.06175
   R11        2.07188   0.00000   0.00000   0.00000   0.00000   2.07188
   R12        2.31752   0.00000   0.00000   0.00000   0.00000   2.31752
   R13        2.59196   0.00000   0.00000   0.00000   0.00000   2.59196
   R14        2.74667   0.00000   0.00000   0.00000   0.00000   2.74667
   R15        2.75266   0.00000   0.00000   0.00000   0.00000   2.75266
   R16        2.05602   0.00000   0.00000   0.00000   0.00000   2.05602
   R17        2.07287   0.00000   0.00000   0.00000   0.00000   2.07287
   R18        2.07598   0.00000   0.00000   0.00000   0.00000   2.07598
   R19        2.07248   0.00000   0.00000   0.00000   0.00000   2.07248
   R20        2.05664   0.00000   0.00000   0.00000   0.00000   2.05664
   R21        2.07420   0.00000   0.00000   0.00000   0.00000   2.07420
   R22        2.06043   0.00000   0.00000   0.00000   0.00000   2.06043
   R23        2.06461   0.00000   0.00000   0.00000   0.00000   2.06461
   R24        2.89124   0.00000   0.00000   0.00000   0.00000   2.89124
   R25        2.08524   0.00000   0.00000   0.00000   0.00000   2.08524
   R26        2.08647   0.00000   0.00000   0.00000   0.00000   2.08646
   R27        2.66898   0.00000   0.00000   0.00001   0.00001   2.66899
   R28        2.66850   0.00000   0.00000   0.00001   0.00001   2.66851
   R29        2.06431   0.00000   0.00000   0.00000   0.00000   2.06431
   R30        2.08148   0.00000   0.00000   0.00000   0.00000   2.08148
   R31        2.08121   0.00000   0.00000   0.00000   0.00000   2.08121
    A1        1.87259   0.00000   0.00000  -0.00001  -0.00001   1.87259
    A2        1.97255   0.00000   0.00000   0.00000   0.00000   1.97255
    A3        1.92916   0.00000   0.00000   0.00000   0.00000   1.92917
    A4        1.91002   0.00000   0.00000   0.00000   0.00000   1.91002
    A5        1.89514   0.00000   0.00000   0.00000   0.00000   1.89515
    A6        1.88319   0.00000   0.00000   0.00000   0.00000   1.88319
    A7        2.11212   0.00000   0.00000  -0.00001  -0.00001   2.11211
    A8        2.05332   0.00000   0.00000   0.00001   0.00001   2.05332
    A9        2.11771   0.00000   0.00000   0.00000   0.00000   2.11771
   A10        2.03634   0.00000   0.00000   0.00000   0.00000   2.03633
   A11        2.17330   0.00000   0.00000   0.00001   0.00001   2.17331
   A12        2.05351   0.00000   0.00000   0.00000   0.00000   2.05351
   A13        1.94388   0.00000   0.00000   0.00000   0.00000   1.94388
   A14        1.87290   0.00000   0.00000   0.00000   0.00000   1.87290
   A15        1.91192   0.00000   0.00000   0.00001   0.00001   1.91193
   A16        1.92540  -0.00001   0.00000   0.00000   0.00000   1.92541
   A17        1.91341   0.00001   0.00000   0.00000   0.00000   1.91340
   A18        1.89536   0.00000   0.00000  -0.00001  -0.00001   1.89535
   A19        2.10076   0.00000   0.00000   0.00000   0.00000   2.10077
   A20        2.04367   0.00000   0.00000  -0.00002  -0.00002   2.04365
   A21        2.13842   0.00000   0.00000   0.00001   0.00001   2.13843
   A22        2.18720   0.00000   0.00000  -0.00001  -0.00001   2.18718
   A23        2.07578   0.00000   0.00000   0.00001   0.00001   2.07579
   A24        2.01468   0.00000   0.00000   0.00000   0.00000   2.01468
   A25        1.94908   0.00000   0.00000   0.00000   0.00000   1.94908
   A26        1.91862   0.00000   0.00000   0.00000   0.00000   1.91862
   A27        1.93981   0.00000   0.00000   0.00000   0.00000   1.93981
   A28        1.88303   0.00000   0.00000   0.00000   0.00000   1.88303
   A29        1.88830   0.00000   0.00000   0.00000   0.00000   1.88830
   A30        1.88281   0.00000   0.00000   0.00001   0.00001   1.88281
   A31        1.92460   0.00000   0.00000   0.00000   0.00000   1.92460
   A32        1.89261   0.00000   0.00000   0.00000   0.00000   1.89261
   A33        1.93219   0.00000   0.00000   0.00000   0.00000   1.93219
   A34        1.91554   0.00000   0.00000   0.00000   0.00000   1.91555
   A35        1.89092   0.00000   0.00000   0.00000   0.00000   1.89092
   A36        1.90798   0.00000   0.00000   0.00000   0.00000   1.90798
   A37        1.92731   0.00000   0.00000   0.00001   0.00001   1.92732
   A38        1.89952   0.00000   0.00000   0.00000   0.00000   1.89952
   A39        1.95921   0.00000   0.00000   0.00000   0.00000   1.95920
   A40        1.85107   0.00000   0.00000   0.00000   0.00000   1.85108
   A41        1.90663   0.00000   0.00000  -0.00001  -0.00001   1.90662
   A42        1.91698   0.00000   0.00000   0.00000   0.00000   1.91698
   A43        1.92456   0.00000   0.00000   0.00000   0.00000   1.92456
   A44        1.92774   0.00000   0.00000   0.00000   0.00000   1.92774
   A45        1.87600   0.00000   0.00000   0.00000   0.00000   1.87600
   A46        1.86379   0.00000   0.00000   0.00001   0.00001   1.86380
   A47        1.93803   0.00000   0.00000   0.00000   0.00000   1.93804
   A48        1.93445   0.00000   0.00000   0.00000   0.00000   1.93444
   A49        1.97293   0.00000   0.00000  -0.00001  -0.00001   1.97292
   A50        1.87280   0.00000   0.00000   0.00000   0.00000   1.87279
   A51        1.95139   0.00000   0.00000   0.00000   0.00000   1.95139
   A52        1.95152   0.00000   0.00000   0.00000   0.00000   1.95152
   A53        1.89953   0.00000   0.00000   0.00000   0.00000   1.89953
   A54        1.89990   0.00000   0.00000   0.00000   0.00000   1.89991
   A55        1.88764   0.00000   0.00000   0.00000   0.00000   1.88764
    D1       -0.18953   0.00000   0.00000  -0.00001  -0.00001  -0.18954
    D2        2.94248   0.00000   0.00000  -0.00004  -0.00004   2.94244
    D3       -2.29658   0.00000   0.00000  -0.00001  -0.00001  -2.29658
    D4        0.83543   0.00000   0.00000  -0.00004  -0.00004   0.83539
    D5        1.87398   0.00000   0.00000  -0.00001  -0.00001   1.87397
    D6       -1.27719   0.00000   0.00000  -0.00004  -0.00004  -1.27723
    D7        3.04347  -0.00001   0.00000   0.00000   0.00000   3.04347
    D8        0.12130   0.00001   0.00000   0.00001   0.00001   0.12131
    D9       -0.10774  -0.00001   0.00000  -0.00003  -0.00003  -0.10777
   D10       -3.02990   0.00000   0.00000  -0.00002  -0.00002  -3.02993
   D11       -1.59401   0.00003   0.00000   0.00000   0.00000  -1.59401
   D12        0.51493   0.00001   0.00000   0.00000   0.00000   0.51493
   D13        2.56945   0.00001   0.00000   0.00000   0.00000   2.56945
   D14        1.34370   0.00002   0.00000  -0.00001  -0.00001   1.34369
   D15       -2.83055   0.00000   0.00000  -0.00001  -0.00001  -2.83056
   D16       -0.77603   0.00000   0.00000  -0.00001  -0.00001  -0.77604
   D17        0.34208  -0.00001   0.00000   0.00003   0.00003   0.34211
   D18        2.36727   0.00000   0.00000   0.00005   0.00005   2.36732
   D19       -1.79012   0.00000   0.00000   0.00004   0.00004  -1.79008
   D20       -2.57812   0.00001   0.00000   0.00004   0.00004  -2.57807
   D21       -0.55292   0.00001   0.00000   0.00006   0.00006  -0.55287
   D22        1.57287   0.00001   0.00000   0.00005   0.00005   1.57292
   D23       -0.11084  -0.00001   0.00000  -0.00001  -0.00001  -0.11085
   D24        3.05800  -0.00001   0.00000   0.00000   0.00000   3.05800
   D25       -2.18872   0.00000   0.00000  -0.00001  -0.00001  -2.18873
   D26        0.98012   0.00000   0.00000   0.00000   0.00000   0.98011
   D27        2.00801   0.00000   0.00000   0.00001   0.00001   2.00802
   D28       -1.10633   0.00000   0.00000   0.00001   0.00001  -1.10632
   D29       -0.09742   0.00000   0.00000   0.00002   0.00002  -0.09740
   D30       -3.12075   0.00000   0.00000   0.00000   0.00000  -3.12075
   D31        3.07205   0.00000   0.00000   0.00002   0.00002   3.07208
   D32        0.04872   0.00000   0.00000   0.00001   0.00001   0.04873
   D33        0.20954   0.00000   0.00000   0.00001   0.00001   0.20955
   D34        2.29898   0.00000   0.00000   0.00000   0.00000   2.29898
   D35       -1.90096   0.00000   0.00000   0.00000   0.00000  -1.90096
   D36       -3.04664   0.00000   0.00000   0.00002   0.00002  -3.04662
   D37       -0.95720   0.00000   0.00000   0.00001   0.00001  -0.95718
   D38        1.12604   0.00000   0.00000   0.00002   0.00002   1.12606
   D39       -2.20929   0.00000   0.00000  -0.00001  -0.00001  -2.20930
   D40       -0.11153   0.00000   0.00000  -0.00001  -0.00001  -0.11154
   D41        1.98152   0.00000   0.00000   0.00000   0.00000   1.98152
   D42        1.03910   0.00000   0.00000  -0.00002  -0.00002   1.03909
   D43        3.13686   0.00000   0.00000  -0.00002  -0.00002   3.13685
   D44       -1.05327   0.00000   0.00000  -0.00002  -0.00002  -1.05328
   D45        1.07043   0.00000   0.00000   0.00000   0.00000   1.07043
   D46       -0.98549   0.00000   0.00000  -0.00001  -0.00001  -0.98550
   D47       -3.09788   0.00000   0.00000   0.00000   0.00000  -3.09788
   D48       -1.07348   0.00000   0.00000  -0.00001  -0.00001  -1.07349
   D49       -3.12940   0.00000   0.00000  -0.00001  -0.00001  -3.12941
   D50        1.04140   0.00000   0.00000  -0.00001  -0.00001   1.04139
   D51       -3.09696   0.00000   0.00000  -0.00001  -0.00001  -3.09696
   D52        1.13031   0.00000   0.00000  -0.00001  -0.00001   1.13030
   D53       -0.98208   0.00000   0.00000   0.00000   0.00000  -0.98208
   D54       -3.13475   0.00000   0.00000   0.00000   0.00000  -3.13476
   D55       -1.02835   0.00000   0.00000  -0.00001  -0.00001  -1.02836
   D56        1.04026   0.00000   0.00000   0.00000   0.00000   1.04027
   D57        3.14035   0.00000   0.00000   0.00001   0.00001   3.14036
   D58       -1.06127   0.00000   0.00000   0.00001   0.00001  -1.06126
   D59        1.05825   0.00000   0.00000   0.00001   0.00001   1.05826
         Item               Value     Threshold  Converged?
 Maximum Force            0.000005     0.000450     YES
 RMS     Force            0.000001     0.000300     YES
 Maximum Displacement     0.000118     0.001800     YES
 RMS     Displacement     0.000035     0.001200     YES
 Predicted change in Energy=-3.639444D-10
 Optimization completed.
    -- Stationary point found.
                           ----------------------------
                           !   Optimized Parameters   !
                           ! (Angstroms and Degrees)  !
 --------------------------                            --------------------------
 ! Name  Definition              Value          Derivative Info.                !
 --------------------------------------------------------------------------------
 ! R1    R(1,2)                  1.5207         -DE/DX =    0.0                 !
 ! R2    R(1,11)                 1.0895         -DE/DX =    0.0                 !
 ! R3    R(1,12)                 1.0936         -DE/DX =    0.0                 !
 ! R4    R(1,13)                 1.0954         -DE/DX =    0.0                 !
 ! R5    R(2,3)                  1.227          -DE/DX =    0.0                 !
 ! R6    R(2,4)                  1.38           -DE/DX =    0.0                 !
 ! R7    R(4,5)                  1.4497         -DE/DX =    0.0                 !
 ! R8    R(4,22)                 1.4603         -DE/DX =    0.0                 !
 ! R9    R(5,6)                  1.5452         -DE/DX =    0.0                 !
 ! R10   R(5,14)                 1.091          -DE/DX =    0.0                 !
 ! R11   R(5,15)                 1.0964         -DE/DX =    0.0                 !
 ! R12   R(6,7)                  1.2264         -DE/DX =    0.0                 !
 ! R13   R(6,8)                  1.3716         -DE/DX =    0.0                 !
 ! R14   R(8,9)                  1.4535         -DE/DX =    0.0                 !
 ! R15   R(8,10)                 1.4566         -DE/DX =    0.0                 !
 ! R16   R(9,16)                 1.088          -DE/DX =    0.0                 !
 ! R17   R(9,17)                 1.0969         -DE/DX =    0.0                 !
 ! R18   R(9,18)                 1.0986         -DE/DX =    0.0                 !
 ! R19   R(10,19)                1.0967         -DE/DX =    0.0                 !
 ! R20   R(10,20)                1.0883         -DE/DX =    0.0                 !
 ! R21   R(10,21)                1.0976         -DE/DX =    0.0                 !
 ! R22   R(22,23)                1.0903         -DE/DX =    0.0                 !
 ! R23   R(22,24)                1.0925         -DE/DX =    0.0                 !
 ! R24   R(22,25)                1.53           -DE/DX =    0.0                 !
 ! R25   R(25,26)                1.1035         -DE/DX =    0.0                 !
 ! R26   R(25,27)                1.1041         -DE/DX =    0.0                 !
 ! R27   R(25,28)                1.4124         -DE/DX =    0.0                 !
 ! R28   R(28,29)                1.4121         -DE/DX =    0.0                 !
 ! R29   R(29,30)                1.0924         -DE/DX =    0.0                 !
 ! R30   R(29,31)                1.1015         -DE/DX =    0.0                 !
 ! R31   R(29,32)                1.1013         -DE/DX =    0.0                 !
 ! A1    A(2,1,11)             107.2918         -DE/DX =    0.0                 !
 ! A2    A(2,1,12)             113.0188         -DE/DX =    0.0                 !
 ! A3    A(2,1,13)             110.5329         -DE/DX =    0.0                 !
 ! A4    A(11,1,12)            109.4362         -DE/DX =    0.0                 !
 ! A5    A(11,1,13)            108.5837         -DE/DX =    0.0                 !
 ! A6    A(12,1,13)            107.8988         -DE/DX =    0.0                 !
 ! A7    A(1,2,3)              121.0154         -DE/DX =    0.0                 !
 ! A8    A(1,2,4)              117.6464         -DE/DX =    0.0                 !
 ! A9    A(3,2,4)              121.3359         -DE/DX =    0.0                 !
 ! A10   A(2,4,5)              116.6734         -DE/DX =    0.0                 !
 ! A11   A(2,4,22)             124.5209         -DE/DX =    0.0                 !
 ! A12   A(5,4,22)             117.6576         -DE/DX =    0.0                 !
 ! A13   A(4,5,6)              111.376          -DE/DX =    0.0                 !
 ! A14   A(4,5,14)             107.3093         -DE/DX =    0.0                 !
 ! A15   A(4,5,15)             109.5448         -DE/DX =    0.0                 !
 ! A16   A(6,5,14)             110.3175         -DE/DX =    0.0                 !
[...]
   D24       -2.00346  -0.00167   0.00000   0.00000   0.00000  -2.00346
   D25       -0.95113  -0.00032  -0.00139  -0.00192  -0.00331  -0.95444
   D26        2.26111  -0.00142  -0.00044  -0.00084  -0.00128   2.25983
   D27       -3.04285  -0.00046  -0.00178  -0.00239  -0.00416  -3.04701
   D28        0.16939  -0.00156  -0.00083  -0.00131  -0.00214   0.16726
   D29       -0.22050   0.00058  -0.00087  -0.00456  -0.00542  -0.22591
   D30       -3.08874   0.00051  -0.00104   0.00150   0.00045  -3.08829
   D31        2.99389  -0.00055   0.00012  -0.00347  -0.00335   2.99054
   D32        0.12564  -0.00061  -0.00005   0.00258   0.00252   0.12816
   D33        0.54776  -0.00008  -0.00047   0.02189   0.02142   0.56918
   D34        2.61554   0.00000  -0.00036   0.02131   0.02095   2.63649
   D35       -1.58919   0.00003  -0.00010   0.02139   0.02129  -1.56790
   D36       -2.85967  -0.00004  -0.00033   0.01582   0.01549  -2.84418
   D37       -0.79190   0.00004  -0.00021   0.01524   0.01502  -0.77687
   D38        1.28656   0.00007   0.00004   0.01532   0.01536   1.30192
   D39       -2.35295   0.00000   0.00299  -0.00727  -0.00428  -2.35724
   D40       -0.25387  -0.00006   0.00293  -0.00812  -0.00519  -0.25906
   D41        1.83892  -0.00004   0.00295  -0.00792  -0.00497   1.83395
   D42        1.03003   0.00006   0.00305  -0.00146   0.00159   1.03162
   D43        3.12912   0.00000   0.00299  -0.00231   0.00068   3.12980
   D44       -1.06128   0.00003   0.00301  -0.00211   0.00090  -1.06038
   D45        1.09605   0.00000   0.00028  -0.00047  -0.00019   1.09586
   D46       -0.95655   0.00000   0.00035  -0.00042  -0.00007  -0.95662
   D47       -3.07135   0.00000   0.00015  -0.00025  -0.00010  -3.07144
   D48       -1.05564   0.00000   0.00037  -0.00040  -0.00003  -1.05567
   D49       -3.10824   0.00000   0.00043  -0.00034   0.00009  -3.10815
   D50        1.06015   0.00000   0.00024  -0.00018   0.00006   1.06021
   D51       -3.07215  -0.00001   0.00027  -0.00043  -0.00017  -3.07231
   D52        1.15844  -0.00001   0.00033  -0.00037  -0.00005   1.15839
   D53       -0.95636  -0.00001   0.00013  -0.00021  -0.00008  -0.95643
   D54       -3.11582  -0.00002  -0.00015  -0.00066  -0.00081  -3.11663
   D55       -1.01285  -0.00002  -0.00031  -0.00047  -0.00078  -1.01364
   D56        1.05910  -0.00002  -0.00038  -0.00040  -0.00078   1.05832
   D57        3.13662   0.00002   0.00061   0.00027   0.00088   3.13751
   D58       -1.06477   0.00002   0.00063   0.00026   0.00089  -1.06388
   D59        1.05455   0.00001   0.00056   0.00030   0.00085   1.05541
         Item               Value     Threshold  Converged?
 Maximum Force            0.000471     0.000450     NO 
 RMS     Force            0.000072     0.000300     YES
 Maximum Displacement     0.033450     0.001800     NO 
 RMS     Displacement     0.005917     0.001200     NO 
 Predicted change in Energy=-2.038917D-06
 GradGradGradGradGradGradGradGradGradGradGradGradGradGradGradGradGradGrad

                          Input orientation:                          
 ---------------------------------------------------------------------
 Center     Atomic      Atomic             Coordinates (Angstroms)
 Number     Number       Type             X           Y           Z
 ---------------------------------------------------------------------
      1          6           0        1.687626    2.766539    0.917688
      2          6           0        0.559615    2.408018   -0.039569
      3          8           0       -0.101686    3.279130   -0.585812
      4          7           0        0.343171    1.060988   -0.295010
      5          6           0       -0.875054    0.700271   -1.014881
      6          6           0       -2.026760    0.408081   -0.031409
      7          8           0       -2.404078    1.299542    0.718711
      8          7           0       -2.544534   -0.870537    0.040764
      9          6           0       -2.300754   -1.949975   -0.906334
     10          6           0       -3.678838   -1.092084    0.933719
     11          1           0        1.812998    3.847723    0.874300
     12          1           0        2.634730    2.282841    0.660815
     13          1           0        1.432426    2.484642    1.944948
     14          1           0       -1.174238    1.579519   -1.588366
     15          1           0       -0.658868   -0.110838   -1.711260
     16          1           0       -1.303041   -1.895556   -1.338071
     17          1           0       -2.375522   -2.906065   -0.378604
     18          1           0       -3.037241   -1.958995   -1.722790
     19          1           0       -3.520861   -2.007457    1.514211
     20          1           0       -3.763230   -0.237804    1.602038
     21          1           0       -4.613372   -1.198744    0.366495
     22          6           0        1.071581   -0.023374    0.357117
     23          1           0        1.530506    0.318949    1.285398
     24          1           0        0.369142   -0.815942    0.636841
     25          6           0        2.154275   -0.616747   -0.547192
     26          1           0        2.911369    0.150200   -0.782179
     27          1           0        1.717266   -0.939225   -1.508321
     28          8           0        2.730646   -1.709421    0.137268
     29          6           0        3.774708   -2.326896   -0.587324
     30          1           0        4.152349   -3.149190    0.024549
     31          1           0        3.421236   -2.731549   -1.548717
     32          1           0        4.599570   -1.626907   -0.791770
 ---------------------------------------------------------------------
                    Distance matrix (angstroms):
                    1          2          3          4          5
     1  C    0.000000
     2  C    1.522263   0.000000
     3  O    2.392676   1.222513   0.000000
     4  N    2.487388   1.388016   2.280925   0.000000
     5  C    3.817278   2.434319   2.726300   1.460274   0.000000
     6  C    4.501086   3.269427   3.500885   2.472316   1.542408
     7  O    4.351289   3.253796   3.304778   2.938012   2.387967
     8  N    5.648760   4.515652   4.855907   3.490325   2.523685
     9  C    6.440476   5.284420   5.681741   4.053388   3.011347
    10  C    6.609702   5.582337   5.849145   4.724621   3.856266
    11  H    1.089293   2.116335   2.474114   3.360591   4.549844
    12  H    1.094054   2.193697   3.167751   2.767268   4.198936
    13  H    1.095380   2.169326   3.064223   2.868916   4.155602
    14  H    3.984920   2.468082   2.245920   2.060139   1.091547
    15  H    4.549363   3.259431   3.615103   2.093567   1.090678
    16  H    5.980607   4.865834   5.365307   3.541065   2.650649
    17  H    7.097040   6.080251   6.593171   4.809967   3.957513
    18  H    7.185205   5.902661   6.111314   4.752477   3.499698
    19  H    7.090502   6.209746   6.636932   5.255414   4.552845
    20  H    6.261489   5.327498   5.528329   4.706185   4.008717
    21  H    7.465243   6.319289   6.427562   5.487376   4.414689
    22  C    2.911592   2.516175   3.629354   1.460032   2.489062
    23  H    2.480040   2.657513   3.863697   2.111416   3.350136
    24  H    3.827721   3.299656   4.299555   2.095683   2.564197
    25  C    3.716216   3.456852   4.502079   2.481630   3.336181
    26  H    3.351467   3.343645   4.348249   2.768124   3.833240
    27  H    4.429344   3.834244   4.685524   2.713137   3.106694
    28  O    4.661670   4.658106   5.781920   3.682672   4.487219
    29  C    5.706493   5.749458   6.815715   4.831010   5.564785
    30  H    6.470580   6.617734   7.732571   5.686612   6.416661
    31  H    6.270369   6.073018   7.033238   5.042778   5.524534
    32  H    5.541122   5.759137   6.798046   5.058506   5.952902
                    6          7          8          9         10
     6  C    0.000000
     7  O    1.224644   0.000000
     8  N    1.381362   2.277846   0.000000
     9  C    2.530019   3.634668   1.456575   0.000000
    10  C    2.431322   2.718661   1.460513   2.453750   0.000000
    11  H    5.234042   4.929621   6.476484   7.328500   7.386846
    12  H    5.071824   5.134181   6.095328   6.688176   7.164198
    13  H    4.492667   4.198438   5.540699   6.460052   6.319855
    14  H    2.126777   2.629354   3.245698   3.767166   4.446504
    15  H    2.227624   3.307520   2.683741   2.593476   4.132672
    16  H    2.745520   3.956171   2.119707   1.088481   3.383934
    17  H    3.350483   4.346498   2.085140   1.094621   2.590628
    18  H    3.079755   4.120666   2.130171   1.099589   2.867093
    19  H    3.233589   3.579982   2.101630   2.711273   1.095371
    20  H    2.469948   2.234053   2.079218   3.370801   1.087919
    21  H    3.070956   3.353576   2.119885   2.744566   1.098395
    22  C    3.152273   3.736451   3.727472   4.084206   4.903172
    23  H    3.794216   4.094344   4.423793   4.962888   5.408508
    24  H    2.772208   3.488943   2.974524   3.285690   4.068235
    25  C    4.335592   5.104239   4.742246   4.664093   6.036907
    26  H    5.001528   5.641599   5.611240   5.620710   6.922312
    27  H    4.244318   5.192035   4.535121   4.186704   5.924936
    28  O    5.210104   5.979743   5.342337   5.144119   6.488215
    29  C    6.437871   7.282458   6.515236   6.095497   7.706730
    30  H    7.130126   7.953604   7.073950   6.629268   8.147747
    31  H    6.468397   7.438092   6.448273   5.810738   7.698142
    32  H    6.973348   7.739299   7.232111   6.908832   8.473216
                   11         12         13         14         15
    11  H    0.000000
    12  H    1.780358   0.000000
    13  H    1.774575   1.770666   0.000000
    14  H    4.486987   4.479030   4.483108   0.000000
    15  H    5.335302   4.712137   4.947513   1.771445   0.000000
    16  H    6.898517   6.079522   6.119406   3.486457   1.933764
    17  H    8.045316   7.287507   6.997076   4.798653   3.540644
    18  H    7.999229   7.473018   7.292197   4.001242   3.012055
    19  H    7.946237   7.551573   6.700712   5.291411   4.710820
    20  H    6.950932   6.940709   5.875724   4.492686   4.542150
    21  H    8.186753   8.046306   7.253311   4.834033   4.597685
    22  C    3.975245   2.802552   2.990244   3.376074   2.698201
    23  H    3.563854   2.338010   2.266021   4.142850   3.736046
    24  H    4.887830   3.838740   3.706153   3.615495   2.658487
    25  C    4.697723   3.177693   4.043568   4.121484   3.086223
    26  H    4.197859   2.589772   3.882540   4.402849   3.698368
    27  H    5.347983   3.991065   4.871249   3.835528   2.524564
    28  O    5.680417   4.027587   4.747973   5.389162   4.178676
    29  C    6.641579   4.909896   5.920270   6.383904   5.082396
    30  H    7.426401   5.675823   6.544156   7.303062   5.949154
    31  H    7.193348   5.535769   6.585568   6.301211   4.851989
    32  H    6.364931   4.610502   5.867305   6.652262   5.549333
                   16         17         18         19         20
    16  H    0.000000
    17  H    1.758386   0.000000
    18  H    1.777494   1.772471   0.000000
    19  H    3.614798   2.387895   3.273288   0.000000
    20  H    4.176712   3.601152   3.813666   1.788332   0.000000
    21  H    3.788058   2.911716   2.725304   1.779002   1.781212
    22  C    3.466635   4.553428   4.995504   5.134781   4.997120
    23  H    4.451473   5.331667   5.924740   5.566043   5.332343
    24  H    2.803933   3.596236   4.298590   4.161924   4.282797
    25  C    3.770129   5.078233   5.489581   6.196017   6.307111
    26  H    4.717561   6.120036   6.381177   7.162575   7.098262
    27  H    3.172665   4.679277   4.867367   6.141237   6.340518
    28  O    4.299059   5.269823   6.065528   6.408287   6.817745
    29  C    5.151040   6.180965   6.915728   7.598936   8.122693
    30  H    5.761043   6.544825   7.493996   7.899418   8.580270
    31  H    4.802296   5.916250   6.506848   7.622240   8.231803
    32  H    5.933922   7.103439   7.700517   8.450075   8.808879
                   21         22         23         24         25
    21  H    0.000000
    22  C    5.805193   0.000000
    23  H    6.394921   1.090643   0.000000
    24  H    5.004504   1.095367   1.748534   0.000000
    25  C    6.853801   1.530389   2.150116   2.151351   0.000000
    26  H    7.730513   2.170932   2.492014   3.067567   1.103005
    27  H    6.607515   2.176132   3.069649   2.536604   1.103965
    28  O    7.365320   2.375623   2.621606   2.573826   1.412312
    29  C    8.517182   3.674926   3.942591   3.921664   2.356274
    30  H    8.986603   4.401415   4.526785   4.486826   3.276042
    31  H    8.400741   4.060455   4.573030   4.214438   2.660945
    32  H    9.295332   4.042025   4.185706   4.538184   2.657011
                   26         27         28         29         30
    26  H    0.000000
    27  H    1.772008   0.000000
    28  O    2.082363   2.080410   0.000000
    29  C    2.630462   2.647062   1.412932   0.000000
    30  H    3.616188   3.628122   2.026544   1.092322   0.000000
    31  H    3.025231   2.473373   2.089068   1.101345   1.784409
    32  H    2.451168   3.048611   2.088731   1.100990   1.784300
                   31         32
    31  H    0.000000
    32  H    1.783725   0.000000
 Stoichiometry    C9H18N2O3
 Framework group  C1[X(C9H18N2O3)]
 Deg. of freedom    90
 Full point group                 C1      NOp   1
 Largest Abelian subgroup         C1      NOp   1
 Largest concise Abelian subgroup C1      NOp   1
                         Standard orientation:                         
 ---------------------------------------------------------------------
 Center     Atomic      Atomic             Coordinates (Angstroms)
 Number     Number       Type             X           Y           Z
 ---------------------------------------------------------------------
      1          6           0        1.478261    2.831845    0.816344
      2          6           0        0.445704    2.290187   -0.162286
      3          8           0       -0.244563    3.046587   -0.830065
      4          7           0        0.351462    0.911520   -0.292608
      5          6           0       -0.786014    0.382881   -1.040332
      6          6           0       -1.972682    0.090961   -0.099256
      7          8           0       -2.465752    1.015492    0.534681
      8          7           0       -2.393189   -1.213664    0.071883
      9          6           0       -2.005652   -2.354685   -0.746345
     10          6           0       -3.562181   -1.442730    0.916918
     11          1           0        1.521845    3.910579    0.671455
     12          1           0        2.474675    2.406675    0.663556
     13          1           0        1.179886    2.629308    1.850660
     14          1           0       -1.114887    1.175026   -1.715477
     15          1           0       -0.462963   -0.470278   -1.638108
     16          1           0       -0.989374   -2.258626   -1.124157
     17          1           0       -2.039895   -3.258706   -0.130091
     18          1           0       -2.684923   -2.503445   -1.598141
     19          1           0       -3.371440   -2.281846    1.594663
     20          1           0       -3.755652   -0.538417    1.489940
     21          1           0       -4.447006   -1.681025    0.311300
     22          6           0        1.118212   -0.040643    0.505624
     23          1           0        1.488237    0.426215    1.419205
     24          1           0        0.462834   -0.858724    0.823510
     25          6           0        2.299867   -0.625284   -0.271537
     26          1           0        3.008720    0.176242   -0.539310
     27          1           0        1.952228   -1.073771   -1.218503
     28          8           0        2.913912   -1.595308    0.551037
     29          6           0        4.047393   -2.189869   -0.047372
     30          1           0        4.447420   -2.915283    0.664612
     31          1           0        3.789261   -2.712904   -0.981591
     32          1           0        4.826892   -1.446164   -0.274226
 ---------------------------------------------------------------------
 Rotational constants (GHZ):      0.7011404      0.4570422      0.3063362
 Standard basis: 6-31G(d,p) (6D, 7F)
 There are   300 symmetry adapted basis functions of A   symmetry.
 Integral buffers will be    131072 words long.
 Raffenetti 2 integral format.
 Two-electron integral symmetry is turned on.
   300 basis functions,   518 primitive gaussians,   300 cartesian basis functions
    55 alpha electrons       55 beta electrons
       nuclear repulsion energy       965.9871207113 Hartrees.
 NAtoms=   32 NActive=   32 NUniq=   32 SFac= 1.00D+00 NAtFMM=   60 NAOKFM=F Big=F
 One-electron integrals computed using PRISM.
 NBasis=   300 RedAO= T  NBF=   300
 NBsUse=   300 1.00D-06 NBFU=   300
 Initial guess read from the read-write file.
 B after Tr=     0.000000    0.000000    0.000000
         Rot=    1.000000    0.000000    0.000000    0.000000 Ang=   0.00 deg.
 Initial guess orbital symmetries:
       Occupied  (A) (A) (A) (A) (A) (A) (A) (A) (A) (A) (A) (A)
                 (A) (A) (A) (A) (A) (A) (A) (A) (A) (A) (A) (A)
                 (A) (A) (A) (A) (A) (A) (A) (A) (A) (A) (A) (A)
                 (A) (A) (A) (A) (A) (A) (A) (A) (A) (A) (A) (A)
                 (A) (A) (A) (A) (A) (A) (A)
       Virtual   (A) (A) (A) (A) (A) (A) (A) (A) (A) (A) (A) (A)
                 (A) (A) (A) (A) (A) (A) (A) (A) (A) (A) (A) (A)
                 (A) (A) (A) (A) (A) (A) (A) (A) (A) (A) (A) (A)
                 (A) (A) (A) (A) (A) (A) (A) (A) (A) (A) (A) (A)
                 (A) (A) (A) (A) (A) (A) (A) (A) (A) (A) (A) (A)
                 (A) (A) (A) (A) (A) (A) (A) (A) (A) (A) (A) (A)
                 (A) (A) (A) (A) (A) (A) (A) (A) (A) (A) (A) (A)
                 (A) (A) (A) (A) (A) (A) (A) (A) (A) (A) (A) (A)
                 (A) (A) (A) (A) (A) (A) (A) (A) (A) (A) (A) (A)
                 (A) (A) (A) (A) (A) (A) (A) (A) (A) (A) (A) (A)
                 (A) (A) (A) (A) (A) (A) (A) (A) (A) (A) (A) (A)
                 (A) (A) (A) (A) (A) (A) (A) (A) (A) (A) (A) (A)
                 (A) (A) (A) (A) (A) (A) (A) (A) (A) (A) (A) (A)
                 (A) (A) (A) (A) (A) (A) (A) (A) (A) (A) (A) (A)
                 (A) (A) (A) (A) (A) (A) (A) (A) (A) (A) (A) (A)
                 (A) (A) (A) (A) (A) (A) (A) (A) (A) (A) (A) (A)
                 (A) (A) (A) (A) (A) (A) (A) (A) (A) (A) (A) (A)
                 (A) (A) (A) (A) (A) (A) (A) (A) (A) (A) (A) (A)
                 (A) (A) (A) (A) (A) (A) (A) (A) (A) (A) (A) (A)
                 (A) (A) (A) (A) (A) (A) (A) (A) (A) (A) (A) (A)
                 (A) (A) (A) (A) (A)
 Harris functional with IExCor=  402 diagonalized for initial guess.
 ExpMin= 1.61D-01 ExpMax= 5.48D+03 ExpMxC= 8.25D+02 IAcc=1 IRadAn=         1 AccDes= 0.00D+00
 HarFok:  IExCor=  402 AccDes= 0.00D+00 IRadAn=         1 IDoV= 1
 ScaDFX=  1.000000  1.000000  1.000000  1.000000
 FoFCou: FMM=F IPFlag=           0 FMFlag=      100000 FMFlg1=           0
         NFxFlg=           0 DoJE=T BraDBF=F KetDBF=T FulRan=T
         Omega=  0.000000  0.000000  1.000000  0.000000  0.000000 ICntrl=     500 IOpCl=  0
         NMat0=    1 NMatS0=    1 NMatT0=    0 NMatD0=    1 NMtDS0=    0 NMtDT0=    0
         I1Cent=           4 NGrid=           0.
 Petite list used in FoFCou.
 Requested convergence on RMS density matrix=1.00D-08 within 128 cycles.
 Requested convergence on MAX density matrix=1.00D-06.
 Requested convergence on             energy=1.00D-06.
 No special actions if energy rises.
 Keep R1 ints in memory in canonical form, NReq=1033484331.
 Integral accuracy reduced to 1.0D-05 until final iterations.
 Initial convergence to 1.0D-05 achieved.  Increase integral accuracy.
 SCF Done:  E(RB3LYP) =  -688.988336283     A.U. after    9 cycles
             Convg  =    0.6575D-08             -V/T =  2.0093
