 Entering Gaussian System, Link 0=/data/opt/apps/g09-C01/g09
 Initial command:
 /data/opt/apps/g09-C01/l1.exe /tmp/g09-tuu61186-1098654c21e64fea8x/Gau-1098717.inp -scrdir=/tmp/g09-tuu61186-1098654c21e64fea8x/
 Entering Link 1 = /data/opt/apps/g09-C01/l1.exe PID=   1098719.
  
 Copyright (c) 1988,1990,1992,1993,1995,1998,2003,2009,2011,
            Gaussian, Inc.  All Rights Reserved.
  
 This is part of the Gaussian(R) 09 program.  It is based on
 the Gaussian(R) 03 system (copyright 2003, Gaussian, Inc.),
 the Gaussian(R) 98 system (copyright 1998, Gaussian, Inc.),
 the Gaussian(R) 94 system (copyright 1995, Gaussian, Inc.),
 the Gaussian 92(TM) system (copyright 1992, Gaussian, Inc.),
 the Gaussian 90(TM) system (copyright 1990, Gaussian, Inc.),
 the Gaussian 88(TM) system (copyright 1988, Gaussian, Inc.),
 the Gaussian 86(TM) system (copyright 1986, Carnegie Mellon
 University), and the Gaussian 82(TM) system (copyright 1983,
 Carnegie Mellon University). Gaussian is a federally registered
 trademark of Gaussian, Inc.
  
 This software contains proprietary and confidential information,
 including trade secrets, belonging to Gaussian, Inc.
  
 This software is provided under written license and may be
 used, copied, transmitted, or stored only in accord with that
 written license.
  
 The following legend is applicable only to US Government
 contracts under FAR:
  
                    RESTRICTED RIGHTS LEGEND
  
 Use, reproduction and disclosure by the US Government is
 subject to restrictions as set forth in subparagraphs (a)
 and (c) of the Commercial Computer Software - Restricted
 Rights clause in FAR 52.227-19.
  
 Gaussian, Inc.
 340 Quinnipiac St., Bldg. 40, Wallingford CT 06492
  
  
 ---------------------------------------------------------------
 Warning -- This program may not be used in any manner that
 competes with the business of Gaussian, Inc. or will provide
 assistance to any competitor of Gaussian, Inc.  The licensee
 of this program is prohibited from giving any competitor of
 Gaussian, Inc. access to this program.  By using this program,
 the user acknowledges that Gaussian, Inc. is engaged in the
 business of creating and licensing software in the field of
 computational chemistry and represents and warrants to the
 licensee that it is not a competitor of Gaussian, Inc. and that
 it will not use this program in any manner prohibited above.
 ---------------------------------------------------------------
  

 Cite this work as:
 Gaussian 09, Revision C.01,
 M. J. Frisch, G. W. Trucks, H. B. Schlegel, G. E. Scuseria, 
 M. A. Robb, J. R. Cheeseman, G. Scalmani, V. Barone, B. Mennucci, 
 G. A. Petersson, H. Nakatsuji, M. Caricato, X. Li, H. P. Hratchian, 
 A. F. Izmaylov, J. Bloino, G. Zheng, J. L. Sonnenberg, M. Hada, 
 M. Ehara, K. Toyota, R. Fukuda, J. Hasegawa, M. Ishida, T. Nakajima, 
 Y. Honda, O. Kitao, H. Nakai, T. Vreven, J. A. Montgomery, Jr., 
 J. E. Peralta, F. Ogliaro, M. Bearpark, J. J. Heyd, E. Brothers, 
 K. N. Kudin, V. N. Staroverov, T. Keith, R. Kobayashi, J. Normand, 
 K. Raghavachari, A. Rendell, J. C. Burant, S. S. Iyengar, J. Tomasi, 
 M. Cossi, N. Rega, J. M. Millam, M. Klene, J. E. Knox, J. B. Cross, 
 V. Bakken, C. Adamo, J. Jaramillo, R. Gomperts, R. E. Stratmann, 
 O. Yazyev, A. J. Austin, R. Cammi, C. Pomelli, J. W. Ochterski, 
 R. L. Martin, K. Morokuma, V. G. Zakrzewski, G. A. Voth, 
 P. Salvador, J. J. Dannenberg, S. Dapprich, A. D. Daniels, 
 O. Farkas, J. B. Foresman, J. V. Ortiz, J. Cioslowski, 
 and D. J. Fox, Gaussian, Inc., Wallingford CT, 2010.
 
 ******************************************
 Gaussian 09:  EM64L-G09RevC.01 23-Sep-2011
                24-Apr-2026 
 ******************************************
 %nprocshared=8
 Will use up to    8 processors via shared memory.
 %mem=14GB
 -----------------------------------
 # opt=modredundant b3lyp/6-31g(d,p)
 -----------------------------------
 1/14=-1,18=120,19=15,26=3,38=1/1,3;
 2/9=110,12=2,17=6,18=5,40=1/2;
 3/5=1,6=6,7=101,11=2,16=1,25=1,30=1,71=1,74=-5/1,2,3;
 4//1;
 5/5=2,38=5/2;
 6/7=2,8=2,9=2,10=2,28=1/1;
 7//1,2,3,16;
 1/14=-1,18=20,19=15/3(2);
 2/9=110/2;
 99//99;
 2/9=110/2;
 3/5=1,6=6,7=101,11=2,16=1,25=1,30=1,71=1,74=-5/1,2,3;
 4/5=5,16=3/1;
 5/5=2,38=5/2;
 7//1,2,3,16;
 1/14=-1,18=20,19=15/3(-5);
 2/9=110/2;
 6/7=2,8=2,9=2,10=2,19=2,28=1/1;
 99/9=1/99;
 ---------------
 QM dihedral opt
 ---------------
 Charge =  0 Multiplicity = 1
 Symbolic Z-Matrix:
 C                     1.30057   2.90893  -0.63835 
 C                     0.04376   2.24983  -0.09041 
 O                    -1.05673   2.77775  -0.25162 
 N                     0.18826   1.06181   0.59107 
 C                    -0.99102   0.50164   1.26032 
 C                    -1.39012  -0.88056   0.71775 
 O                    -0.84453  -1.8787    1.19358 
 N                    -2.32488  -0.95844  -0.27682 
 C                    -2.98622   0.16661  -0.92812 
 C                    -2.73055  -2.2761   -0.74945 
 H                     0.9821    3.74514  -1.25956 
 H                     1.91287   2.22587  -1.23294 
 H                     1.92625   3.29388   0.1743 
 H                    -0.74735   0.32627   2.31258 
 H                    -1.78223   1.24525   1.19828 
 H                    -2.51049   1.11704  -0.68972 
 H                    -2.93551   0.03203  -2.01522 
 H                    -4.04709   0.21043  -0.64706 
 H                    -2.47529  -2.39999  -1.80935 
 H                    -2.21477  -3.03147  -0.15985 
 H                    -3.81518  -2.39866  -0.64218 
 C                     1.48362   0.42138   0.83564 
 H                     2.26961   1.17675   0.90563 
 H                     1.43555  -0.08762   1.8013 
 C                     1.88735  -0.599    -0.23321 
 H                     1.80795  -0.15259  -1.23996 
 H                     1.21785  -1.46878  -0.1937 
 O                     3.2235   -0.96951   0.04906 
 C                     3.69234  -2.0122   -0.7805 
 H                     4.72031  -2.22817  -0.48007 
 H                     3.08833  -2.92538  -0.66881 
 H                     3.68717  -1.72321  -1.84363 
 
 The following ModRedundant input section has been read:
 D       2       4       5       6 F                                           
 D       4       5       6       8 S  36 10.000                                

 GradGradGradGradGradGradGradGradGradGradGradGradGradGradGradGradGradGrad
 Berny optimization.
 Initialization pass.
                           ----------------------------
                           !    Initial Parameters    !
                           ! (Angstroms and Degrees)  !
 --------------------------                            --------------------------
 ! Name  Definition              Value          Derivative Info.                !
 --------------------------------------------------------------------------------
 ! R1    R(1,2)                  1.5213         estimate D2E/DX2                !
 ! R2    R(1,11)                 1.0893         estimate D2E/DX2                !
 ! R3    R(1,12)                 1.0932         estimate D2E/DX2                !
 ! R4    R(1,13)                 1.0955         estimate D2E/DX2                !
 ! R5    R(2,3)                  1.2312         estimate D2E/DX2                !
 ! R6    R(2,4)                  1.3772         estimate D2E/DX2                !
 ! R7    R(4,5)                  1.4671         estimate D2E/DX2                !
 ! R8    R(4,22)                 1.4656         estimate D2E/DX2                !
 ! R9    R(5,6)                  1.5376         estimate D2E/DX2                !
 ! R10   R(5,14)                 1.0942         estimate D2E/DX2                !
 ! R11   R(5,15)                 1.0876         estimate D2E/DX2                !
 ! R12   R(6,7)                  1.233          estimate D2E/DX2                !
 ! R13   R(6,8)                  1.3671         estimate D2E/DX2                !
 ! R14   R(8,9)                  1.4585         estimate D2E/DX2                !
 ! R15   R(8,10)                 1.4575         estimate D2E/DX2                !
 ! R16   R(9,16)                 1.0892         estimate D2E/DX2                !
 ! R17   R(9,17)                 1.0966         estimate D2E/DX2                !
 ! R18   R(9,18)                 1.0983         estimate D2E/DX2                !
 ! R19   R(10,19)                1.0972         estimate D2E/DX2                !
 ! R20   R(10,20)                1.0882         estimate D2E/DX2                !
 ! R21   R(10,21)                1.0968         estimate D2E/DX2                !
 ! R22   R(22,23)                1.0924         estimate D2E/DX2                !
 ! R23   R(22,24)                1.0927         estimate D2E/DX2                !
 ! R24   R(22,25)                1.5319         estimate D2E/DX2                !
 ! R25   R(25,26)                1.1041         estimate D2E/DX2                !
 ! R26   R(25,27)                1.0983         estimate D2E/DX2                !
 ! R27   R(25,28)                1.415          estimate D2E/DX2                !
 ! R28   R(28,29)                1.4125         estimate D2E/DX2                !
 ! R29   R(29,30)                1.0925         estimate D2E/DX2                !
 ! R30   R(29,31)                1.1005         estimate D2E/DX2                !
 ! R31   R(29,32)                1.1017         estimate D2E/DX2                !
 ! A1    A(2,1,11)             107.2461         estimate D2E/DX2                !
 ! A2    A(2,1,12)             112.8267         estimate D2E/DX2                !
 ! A3    A(2,1,13)             110.9108         estimate D2E/DX2                !
 ! A4    A(11,1,12)            109.4651         estimate D2E/DX2                !
 ! A5    A(11,1,13)            108.6795         estimate D2E/DX2                !
 ! A6    A(12,1,13)            107.6466         estimate D2E/DX2                !
 ! A7    A(1,2,3)              120.3663         estimate D2E/DX2                !
 ! A8    A(1,2,4)              117.7293         estimate D2E/DX2                !
 ! A9    A(3,2,4)              121.9027         estimate D2E/DX2                !
 ! A10   A(2,4,5)              118.0835         estimate D2E/DX2                !
 ! A11   A(2,4,22)             123.5224         estimate D2E/DX2                !
 ! A12   A(5,4,22)             117.8714         estimate D2E/DX2                !
 ! A13   A(4,5,6)              113.0109         estimate D2E/DX2                !
 ! A14   A(4,5,14)             108.7155         estimate D2E/DX2                !
 ! A15   A(4,5,15)             107.3192         estimate D2E/DX2                !
 ! A16   A(6,5,14)             104.6584         estimate D2E/DX2                !
 ! A17   A(6,5,15)             113.9335         estimate D2E/DX2                !
 ! A18   A(14,5,15)            109.0527         estimate D2E/DX2                !
 ! A19   A(5,6,7)              118.4686         estimate D2E/DX2                !
 ! A20   A(5,6,8)              119.0386         estimate D2E/DX2                !
 ! A21   A(7,6,8)              122.491          estimate D2E/DX2                !
 ! A22   A(6,8,9)              126.2246         estimate D2E/DX2                !
 ! A23   A(6,8,10)             118.5375         estimate D2E/DX2                !
 ! A24   A(9,8,10)             115.2362         estimate D2E/DX2                !
 ! A25   A(8,9,16)             112.1654         estimate D2E/DX2                !
 ! A26   A(8,9,17)             109.0902         estimate D2E/DX2                !
 ! A27   A(8,9,18)             110.7608         estimate D2E/DX2                !
 ! A28   A(16,9,17)            107.6898         estimate D2E/DX2                !
 ! A29   A(16,9,18)            109.3315         estimate D2E/DX2                !
 ! A30   A(17,9,18)            107.6524         estimate D2E/DX2                !
 ! A31   A(8,10,19)            110.5231         estimate D2E/DX2                !
 ! A32   A(8,10,20)            108.6587         estimate D2E/DX2                !
 ! A33   A(8,10,21)            110.1557         estimate D2E/DX2                !
 ! A34   A(19,10,20)           109.5556         estimate D2E/DX2                !
 ! A35   A(19,10,21)           108.175          estimate D2E/DX2                !
 ! A36   A(20,10,21)           109.7642         estimate D2E/DX2                !
 ! A37   A(4,22,23)            110.1504         estimate D2E/DX2                !
 ! A38   A(4,22,24)            108.1894         estimate D2E/DX2                !
 ! A39   A(4,22,25)            114.053          estimate D2E/DX2                !
 ! A40   A(23,22,24)           107.2867         estimate D2E/DX2                !
 ! A41   A(23,22,25)           108.402          estimate D2E/DX2                !
 ! A42   A(24,22,25)           108.5385         estimate D2E/DX2                !
 ! A43   A(22,25,26)           110.3614         estimate D2E/DX2                !
 ! A44   A(22,25,27)           109.9833         estimate D2E/DX2                !
 ! A45   A(22,25,28)           106.5045         estimate D2E/DX2                !
 ! A46   A(26,25,27)           108.0081         estimate D2E/DX2                !
 ! A47   A(26,25,28)           110.8331         estimate D2E/DX2                !
 ! A48   A(27,25,28)           111.1651         estimate D2E/DX2                !
 ! A49   A(25,28,29)           112.9265         estimate D2E/DX2                !
 ! A50   A(28,29,30)           107.2609         estimate D2E/DX2                !
 ! A51   A(28,29,31)           111.7616         estimate D2E/DX2                !
 ! A52   A(28,29,32)           111.8103         estimate D2E/DX2                !
 ! A53   A(30,29,31)           108.933          estimate D2E/DX2                !
 ! A54   A(30,29,32)           108.761          estimate D2E/DX2                !
 ! A55   A(31,29,32)           108.2406         estimate D2E/DX2                !
 ! D1    D(11,1,2,3)            -8.4612         estimate D2E/DX2                !
 ! D2    D(11,1,2,4)           171.9981         estimate D2E/DX2                !
 ! D3    D(12,1,2,3)          -129.074          estimate D2E/DX2                !
 ! D4    D(12,1,2,4)            51.3853         estimate D2E/DX2                !
 ! D5    D(13,1,2,3)           110.0679         estimate D2E/DX2                !
 ! D6    D(13,1,2,4)           -69.4728         estimate D2E/DX2                !
 ! D7    D(1,2,4,5)            172.7989         estimate D2E/DX2                !
 ! D8    D(1,2,4,22)             1.2809         estimate D2E/DX2                !
 ! D9    D(3,2,4,5)             -6.7343         estimate D2E/DX2                !
 ! D10   D(3,2,4,22)          -178.2523         estimate D2E/DX2                !
 ! D11   D(2,4,5,6)            118.6699         Frozen                          !
 ! D12   D(2,4,5,14)          -125.5981         estimate D2E/DX2                !
 ! D13   D(2,4,5,15)            -7.7795         estimate D2E/DX2                !
 ! D14   D(22,4,5,6)           -69.326          estimate D2E/DX2                !
 ! D15   D(22,4,5,14)           46.406          estimate D2E/DX2                !
 ! D16   D(22,4,5,15)          164.2247         estimate D2E/DX2                !
 ! D17   D(2,4,22,23)           29.7404         estimate D2E/DX2                !
 ! D18   D(2,4,22,24)          146.7247         estimate D2E/DX2                !
 ! D19   D(2,4,22,25)          -92.4017         estimate D2E/DX2                !
 ! D20   D(5,4,22,23)         -141.7944         estimate D2E/DX2                !
 ! D21   D(5,4,22,24)          -24.8101         estimate D2E/DX2                !
 ! D22   D(5,4,22,25)           96.0635         estimate D2E/DX2                !
 ! D23   D(4,5,6,7)             85.9682         estimate D2E/DX2                !
 ! D24   D(4,5,6,8)            -93.5442         Scan                            !
 ! D25   D(14,5,6,7)           -32.1586         estimate D2E/DX2                !
 ! D26   D(14,5,6,8)           148.329          estimate D2E/DX2                !
 ! D27   D(15,5,6,7)          -151.1879         estimate D2E/DX2                !
 ! D28   D(15,5,6,8)            29.2997         estimate D2E/DX2                !
 ! D29   D(5,6,8,9)              1.698          estimate D2E/DX2                !
 ! D30   D(5,6,8,10)          -177.8121         estimate D2E/DX2                !
 ! D31   D(7,6,8,9)           -177.7937         estimate D2E/DX2                !
 ! D32   D(7,6,8,10)             2.6961         estimate D2E/DX2                !
 ! D33   D(6,8,9,16)            12.0941         estimate D2E/DX2                !
 ! D34   D(6,8,9,17)           131.3163         estimate D2E/DX2                !
 ! D35   D(6,8,9,18)          -110.3654         estimate D2E/DX2                !
 ! D36   D(10,8,9,16)         -168.3817         estimate D2E/DX2                !
 ! D37   D(10,8,9,17)          -49.1594         estimate D2E/DX2                !
 ! D38   D(10,8,9,18)           69.1588         estimate D2E/DX2                !
 ! D39   D(6,8,10,19)         -117.7141         estimate D2E/DX2                !
 ! D40   D(6,8,10,20)            2.5271         estimate D2E/DX2                !
 ! D41   D(6,8,10,21)          122.8012         estimate D2E/DX2                !
 ! D42   D(9,8,10,19)           62.7228         estimate D2E/DX2                !
 ! D43   D(9,8,10,20)         -177.036          estimate D2E/DX2                !
 ! D44   D(9,8,10,21)          -56.7619         estimate D2E/DX2                !
 ! D45   D(4,22,25,26)          51.393          estimate D2E/DX2                !
 ! D46   D(4,22,25,27)         -67.6745         estimate D2E/DX2                !
 ! D47   D(4,22,25,28)         171.7653         estimate D2E/DX2                !
 ! D48   D(23,22,25,26)        -71.7046         estimate D2E/DX2                !
 ! D49   D(23,22,25,27)        169.228          estimate D2E/DX2                !
 ! D50   D(23,22,25,28)         48.6677         estimate D2E/DX2                !
 ! D51   D(24,22,25,26)        172.072          estimate D2E/DX2                !
 ! D52   D(24,22,25,27)         53.0045         estimate D2E/DX2                !
 ! D53   D(24,22,25,28)        -67.5557         estimate D2E/DX2                !
 ! D54   D(22,25,28,29)        174.0489         estimate D2E/DX2                !
 ! D55   D(26,25,28,29)        -65.8832         estimate D2E/DX2                !
 ! D56   D(27,25,28,29)         54.2515         estimate D2E/DX2                !
 ! D57   D(25,28,29,30)       -179.5278         estimate D2E/DX2                !
 ! D58   D(25,28,29,31)        -60.1956         estimate D2E/DX2                !
 ! D59   D(25,28,29,32)         61.3221         estimate D2E/DX2                !
 --------------------------------------------------------------------------------
 Trust Radius=3.00D-01 FncErr=1.00D-07 GrdErr=1.00D-06
 Number of optimizations in scan=  37
 Number of steps in this run=    155 maximum allowed number of steps=    192.
 GradGradGradGradGradGradGradGradGradGradGradGradGradGradGradGradGradGrad

                          Input orientation:                          
 ---------------------------------------------------------------------
 Center     Atomic      Atomic             Coordinates (Angstroms)
 Number     Number       Type             X           Y           Z
 ---------------------------------------------------------------------
      1          6           0        1.300565    2.908929   -0.638350
      2          6           0        0.043760    2.249831   -0.090405
      3          8           0       -1.056726    2.777751   -0.251624
      4          7           0        0.188259    1.061810    0.591070
      5          6           0       -0.991021    0.501644    1.260322
      6          6           0       -1.390121   -0.880556    0.717753
      7          8           0       -0.844526   -1.878703    1.193576
      8          7           0       -2.324877   -0.958435   -0.276815
      9          6           0       -2.986220    0.166609   -0.928116
     10          6           0       -2.730552   -2.276096   -0.749446
     11          1           0        0.982103    3.745141   -1.259563
     12          1           0        1.912868    2.225874   -1.232936
     13          1           0        1.926250    3.293883    0.174303
     14          1           0       -0.747354    0.326267    2.312580
     15          1           0       -1.782225    1.245245    1.198283
     16          1           0       -2.510492    1.117035   -0.689719
     17          1           0       -2.935512    0.032028   -2.015224
     18          1           0       -4.047093    0.210427   -0.647058
     19          1           0       -2.475289   -2.399992   -1.809353
     20          1           0       -2.214773   -3.031467   -0.159852
     21          1           0       -3.815181   -2.398662   -0.642177
     22          6           0        1.483619    0.421382    0.835635
     23          1           0        2.269609    1.176748    0.905629
     24          1           0        1.435552   -0.087624    1.801298
     25          6           0        1.887345   -0.598997   -0.233212
     26          1           0        1.807954   -0.152590   -1.239958
     27          1           0        1.217852   -1.468777   -0.193698
     28          8           0        3.223501   -0.969507    0.049059
     29          6           0        3.692335   -2.012200   -0.780501
     30          1           0        4.720306   -2.228167   -0.480068
     31          1           0        3.088330   -2.925382   -0.668810
     32          1           0        3.687167   -1.723212   -1.843625
 ---------------------------------------------------------------------
                    Distance matrix (angstroms):
                    1          2          3          4          5
     1  C    0.000000
     2  C    1.521254   0.000000
     3  O    2.392402   1.231162   0.000000
     4  N    2.482045   1.377201   2.281354   0.000000
     5  C    3.827707   2.439548   2.733306   1.467101   0.000000
     6  C    4.841384   3.536730   3.799218   2.506016   1.537576
     7  O    5.556869   4.413893   4.880184   3.174315   2.385784
     8  N    5.313289   3.992263   3.945621   3.339231   2.504754
     9  C    5.097137   3.771253   3.316421   3.631340   2.980324
    10  C    6.568617   5.349314   5.347045   4.632284   3.844603
    11  H    1.089300   2.117397   2.471560   3.354891   4.556678
    12  H    1.093166   2.190780   3.175851   2.767005   4.197842
    13  H    1.095480   2.168844   3.057115   2.859451   4.181687
    14  H    4.424037   3.178096   3.560987   2.092843   1.094248
    15  H    3.955333   2.450333   2.230954   2.070064   1.087564
    16  H    4.211612   2.857728   2.250187   2.987763   2.547579
    17  H    5.302517   4.183257   3.765517   4.196566   3.838071
    18  H    5.989944   4.604792   3.961037   4.493998   3.614206
    19  H    6.619136   5.560687   5.589979   4.984034   4.477214
    20  H    6.919167   5.744380   5.924231   4.805555   3.999667
    21  H    7.371662   6.066660   5.878508   5.433534   4.472936
    22  C    2.897245   2.504789   3.631523   1.465578   2.512100
    23  H    2.514631   2.664206   3.868714   2.108121   3.348624
    24  H    3.866450   3.313506   4.316980   2.083648   2.555024
    25  C    3.579664   3.396325   4.479991   2.514879   3.424477
    26  H    3.161056   3.194602   4.215459   2.729623   3.809683
    27  H    4.401007   3.900924   4.817682   2.842498   3.297856
    28  O    4.383204   4.527068   5.696727   3.692251   4.625326
    29  C    5.473416   5.652720   6.765864   4.858940   5.693698
    30  H    6.173284   6.486477   7.647581   5.701819   6.565065
    31  H    6.102149   6.032146   7.062667   5.088753   5.666318
    32  H    5.348391   5.668621   6.730353   5.091802   6.039033
                    6          7          8          9         10
     6  C    0.000000
     7  O    1.233036   0.000000
     8  N    1.367114   2.280435   0.000000
     9  C    2.520510   3.643039   1.458524   0.000000
    10  C    2.428366   2.736850   1.457458   2.462539   0.000000
    11  H    5.561861   6.401725   5.833141   5.353815   7.092201
    12  H    4.936074   5.508061   5.386323   5.323021   6.485588
    13  H    5.359067   5.955818   6.029743   5.926848   7.318728
    14  H    2.100725   2.474572   3.293024   3.942096   4.481224
    15  H    2.214426   3.261649   2.706768   2.671073   4.134346
    16  H    2.688230   3.911098   2.124269   1.089247   3.400784
    17  H    3.269588   4.280130   2.091879   1.096580   2.640386
    18  H    3.180008   4.243682   2.114083   1.098347   2.815415
    19  H    3.142060   3.456691   2.109356   2.761353   1.097229
    20  H    2.465088   2.244596   2.079246   3.378321   1.088225
    21  H    3.167802   3.530600   2.104459   2.711006   1.096790
    22  C    3.157106   3.292229   4.200724   4.811984   5.248629
    23  H    4.202549   4.372246   5.202546   5.657450   6.297858
    24  H    3.128456   2.962439   4.383799   5.202538   5.352768
    25  C    3.424236   3.337138   4.227755   4.982036   4.940054
    26  H    3.819719   3.992143   4.319412   4.814897   5.034671
    27  H    2.824583   2.519121   3.580263   4.570348   4.068232
    28  O    4.662679   4.322661   5.557951   6.387978   6.147807
    29  C    5.418186   4.949536   6.129516   7.026528   6.428381
    30  H    6.370883   5.821560   7.161573   8.082465   7.455880
    31  H    5.114723   4.475642   5.772811   6.821129   5.855550
    32  H    5.748876   5.457564   6.259748   6.995976   6.533760
                   11         12         13         14         15
    11  H    0.000000
    12  H    1.781910   0.000000
    13  H    1.775111   1.766676   0.000000
    14  H    5.238313   4.822445   4.530688   0.000000
    15  H    4.464526   4.530582   4.358697   1.776833   0.000000
    16  H    4.407934   4.592464   5.016959   3.570402   2.027649
    17  H    5.450315   5.378822   6.250636   4.858446   3.623340
    18  H    6.177554   6.318735   6.772235   4.434090   3.099316
    19  H    7.072375   6.402095   7.465162   5.235320   4.776397
    20  H    7.573097   6.769680   7.567680   4.420477   4.507981
    21  H    7.819298   7.385518   8.126238   5.056421   4.560511
    22  C    3.960902   2.778387   2.980695   2.677247   3.387625
    23  H    3.597551   2.408607   2.266052   3.435825   4.062967
    24  H    4.925908   3.845345   3.784506   2.279867   3.534721
    25  C    4.554601   2.996664   3.914345   3.778731   4.349270
    26  H    3.984309   2.380787   3.727238   4.402207   4.559424
    27  H    5.326968   3.900450   4.829098   3.655906   4.278316
    28  O    5.381846   3.683983   4.458143   4.750815   5.593133
    29  C    6.381366   4.618709   5.673202   5.894609   6.670633
    30  H    7.089583   5.318552   6.223181   6.649761   7.560712
    31  H    7.020047   5.313698   6.382831   5.845886   6.678508
    32  H    6.128734   4.372226   5.687188   6.413999   6.926701
                   16         17         18         19         20
    16  H    0.000000
    17  H    1.764893   0.000000
    18  H    1.784629   1.771812   0.000000
    19  H    3.691111   2.483729   3.261255   0.000000
    20  H    4.192646   3.653337   3.755615   1.785352   0.000000
    21  H    3.750280   2.927000   2.619380   1.776967   1.787284
    22  C    4.331693   5.273302   5.729891   5.534353   5.156672
    23  H    5.039649   6.077421   6.576119   6.532860   6.241314
    24  H    4.819505   5.803995   6.011878   5.803320   5.083030
    25  C    4.742798   5.180126   6.003665   4.975980   4.769661
    26  H    4.534720   4.809947   5.896176   4.870441   5.063289
    27  H    4.564319   4.777113   5.544809   4.137245   3.771745
    28  O    6.146391   6.572502   7.398538   6.162482   5.819806
    29  C    6.948051   7.044982   8.053361   6.264863   6.026445
    30  H    7.969866   8.128760   9.101753   7.319365   6.988787
    31  H    6.905677   6.844397   7.794102   5.703572   5.328526
    32  H    6.914440   6.853480   8.061607   6.199602   6.275310
                   21         22         23         24         25
    21  H    0.000000
    22  C    6.181736   0.000000
    23  H    7.225229   1.092363   0.000000
    24  H    6.235516   1.092658   1.759690   0.000000
    25  C    5.993734   1.531862   2.143911   2.145891   0.000000
    26  H    6.084557   2.177779   2.565893   3.064660   1.104138
    27  H    5.137825   2.168608   3.051805   2.436183   1.098317
    28  O    7.215493   2.362300   2.500007   2.654208   1.415015
    29  C    7.518729   3.662328   3.877702   3.932270   2.356832
    30  H    8.538729   4.384898   4.418090   4.536096   3.277316
    31  H    6.923627   4.004907   4.469523   4.109255   2.654087
    32  H    7.627905   4.078399   4.240004   4.585889   2.663954
                   26         27         28         29         30
    26  H    0.000000
    27  H    1.781917   0.000000
    28  O    2.081512   2.081064   0.000000
    29  C    2.687032   2.600522   1.412510   0.000000
    30  H    3.656125   3.595256   2.025988   1.092532   0.000000
    31  H    3.107080   2.417875   2.087835   1.100545   1.784679
    32  H    2.522441   2.980690   2.089332   1.101714   1.783716
                   31         32
    31  H    0.000000
    32  H    1.784379   0.000000
 Stoichiometry    C9H18N2O3
 Framework group  C1[X(C9H18N2O3)]
 Deg. of freedom    90
 Full point group                 C1      NOp   1
 Largest Abelian subgroup         C1      NOp   1
 Largest concise Abelian subgroup C1      NOp   1
                         Standard orientation:                         
 ---------------------------------------------------------------------
 Center     Atomic      Atomic             Coordinates (Angstroms)
 Number     Number       Type             X           Y           Z
 ---------------------------------------------------------------------
      1          6           0        1.300566    2.908929   -0.638350
      2          6           0        0.043761    2.249831   -0.090405
      3          8           0       -1.056725    2.777751   -0.251624
      4          7           0        0.188259    1.061810    0.591070
      5          6           0       -0.991021    0.501644    1.260322
      6          6           0       -1.390121   -0.880556    0.717753
      7          8           0       -0.844526   -1.878703    1.193576
      8          7           0       -2.324877   -0.958435   -0.276815
      9          6           0       -2.986220    0.166610   -0.928116
     10          6           0       -2.730552   -2.276095   -0.749446
     11          1           0        0.982104    3.745141   -1.259563
     12          1           0        1.912869    2.225874   -1.232936
     13          1           0        1.926251    3.293883    0.174303
     14          1           0       -0.747354    0.326267    2.312580
     15          1           0       -1.782225    1.245245    1.198283
     16          1           0       -2.510492    1.117036   -0.689719
     17          1           0       -2.935512    0.032029   -2.015224
     18          1           0       -4.047093    0.210428   -0.647058
     19          1           0       -2.475290   -2.399991   -1.809353
     20          1           0       -2.214774   -3.031467   -0.159852
     21          1           0       -3.815182   -2.398661   -0.642177
     22          6           0        1.483619    0.421382    0.835635
     23          1           0        2.269609    1.176747    0.905629
     24          1           0        1.435552   -0.087624    1.801298
     25          6           0        1.887345   -0.598997   -0.233212
     26          1           0        1.807954   -0.152590   -1.239958
     27          1           0        1.217852   -1.468777   -0.193698
     28          8           0        3.223501   -0.969508    0.049059
     29          6           0        3.692335   -2.012201   -0.780501
     30          1           0        4.720306   -2.228168   -0.480068
     31          1           0        3.088329   -2.925383   -0.668810
     32          1           0        3.687167   -1.723213   -1.843625
 ---------------------------------------------------------------------
 Rotational constants (GHZ):      0.7103268      0.5027797      0.3430023
 Standard basis: 6-31G(d,p) (6D, 7F)
 There are   300 symmetry adapted basis functions of A   symmetry.
 Integral buffers will be    131072 words long.
 Raffenetti 2 integral format.
 Two-electron integral symmetry is turned on.
   300 basis functions,   518 primitive gaussians,   300 cartesian basis functions
    55 alpha electrons       55 beta electrons
       nuclear repulsion energy       981.0139972130 Hartrees.
 NAtoms=   32 NActive=   32 NUniq=   32 SFac= 1.00D+00 NAtFMM=   60 NAOKFM=F Big=F
 One-electron integrals computed using PRISM.
 NBasis=   300 RedAO= T  NBF=   300
 NBsUse=   300 1.00D-06 NBFU=   300
 Harris functional with IExCor=  402 diagonalized for initial guess.
 ExpMin= 1.61D-01 ExpMax= 5.48D+03 ExpMxC= 8.25D+02 IAcc=1 IRadAn=         1 AccDes= 0.00D+00
 HarFok:  IExCor=  402 AccDes= 0.00D+00 IRadAn=         1 IDoV= 1
 ScaDFX=  1.000000  1.000000  1.000000  1.000000
 FoFCou: FMM=F IPFlag=           0 FMFlag=      100000 FMFlg1=           0
         NFxFlg=           0 DoJE=T BraDBF=F KetDBF=T FulRan=T
         Omega=  0.000000  0.000000  1.000000  0.000000  0.000000 ICntrl=     500 IOpCl=  0
         NMat0=    1 NMatS0=    1 NMatT0=    0 NMatD0=    1 NMtDS0=    0 NMtDT0=    0
         I1Cent=           4 NGrid=           0.
 Petite list used in FoFCou.
 Initial guess orbital symmetries:
       Occupied  (A) (A) (A) (A) (A) (A) (A) (A) (A) (A) (A) (A)
                 (A) (A) (A) (A) (A) (A) (A) (A) (A) (A) (A) (A)
                 (A) (A) (A) (A) (A) (A) (A) (A) (A) (A) (A) (A)
                 (A) (A) (A) (A) (A) (A) (A) (A) (A) (A) (A) (A)
                 (A) (A) (A) (A) (A) (A) (A)
       Virtual   (A) (A) (A) (A) (A) (A) (A) (A) (A) (A) (A) (A)
                 (A) (A) (A) (A) (A) (A) (A) (A) (A) (A) (A) (A)
                 (A) (A) (A) (A) (A) (A) (A) (A) (A) (A) (A) (A)
                 (A) (A) (A) (A) (A) (A) (A) (A) (A) (A) (A) (A)
                 (A) (A) (A) (A) (A) (A) (A) (A) (A) (A) (A) (A)
                 (A) (A) (A) (A) (A) (A) (A) (A) (A) (A) (A) (A)
                 (A) (A) (A) (A) (A) (A) (A) (A) (A) (A) (A) (A)
                 (A) (A) (A) (A) (A) (A) (A) (A) (A) (A) (A) (A)
                 (A) (A) (A) (A) (A) (A) (A) (A) (A) (A) (A) (A)
                 (A) (A) (A) (A) (A) (A) (A) (A) (A) (A) (A) (A)
                 (A) (A) (A) (A) (A) (A) (A) (A) (A) (A) (A) (A)
                 (A) (A) (A) (A) (A) (A) (A) (A) (A) (A) (A) (A)
                 (A) (A) (A) (A) (A) (A) (A) (A) (A) (A) (A) (A)
                 (A) (A) (A) (A) (A) (A) (A) (A) (A) (A) (A) (A)
                 (A) (A) (A) (A) (A) (A) (A) (A) (A) (A) (A) (A)
                 (A) (A) (A) (A) (A) (A) (A) (A) (A) (A) (A) (A)
                 (A) (A) (A) (A) (A) (A) (A) (A) (A) (A) (A) (A)
                 (A) (A) (A) (A) (A) (A) (A) (A) (A) (A) (A) (A)
                 (A) (A) (A) (A) (A) (A) (A) (A) (A) (A) (A) (A)
                 (A) (A) (A) (A) (A) (A) (A) (A) (A) (A) (A) (A)
                 (A) (A) (A) (A) (A)
 The electronic state of the initial guess is 1-A.
 Requested convergence on RMS density matrix=1.00D-08 within 128 cycles.
 Requested convergence on MAX density matrix=1.00D-06.
 Requested convergence on             energy=1.00D-06.
 No special actions if energy rises.
 Keep R1 ints in memory in canonical form, NReq=1033484046.
 Integral accuracy reduced to 1.0D-05 until final iterations.
 Initial convergence to 1.0D-05 achieved.  Increase integral accuracy.
 SCF Done:  E(RB3LYP) =  -688.998598145     A.U. after   14 cycles
             Convg  =    0.8148D-08             -V/T =  2.0093

 **********************************************************************

            Population analysis using the SCF density.

 **********************************************************************

 Orbital symmetries:
       Occupied  (A) (A) (A) (A) (A) (A) (A) (A) (A) (A) (A) (A)
                 (A) (A) (A) (A) (A) (A) (A) (A) (A) (A) (A) (A)
                 (A) (A) (A) (A) (A) (A) (A) (A) (A) (A) (A) (A)
                 (A) (A) (A) (A) (A) (A) (A) (A) (A) (A) (A) (A)
                 (A) (A) (A) (A) (A) (A) (A)
       Virtual   (A) (A) (A) (A) (A) (A) (A) (A) (A) (A) (A) (A)
                 (A) (A) (A) (A) (A) (A) (A) (A) (A) (A) (A) (A)
                 (A) (A) (A) (A) (A) (A) (A) (A) (A) (A) (A) (A)
                 (A) (A) (A) (A) (A) (A) (A) (A) (A) (A) (A) (A)
                 (A) (A) (A) (A) (A) (A) (A) (A) (A) (A) (A) (A)
                 (A) (A) (A) (A) (A) (A) (A) (A) (A) (A) (A) (A)
                 (A) (A) (A) (A) (A) (A) (A) (A) (A) (A) (A) (A)
                 (A) (A) (A) (A) (A) (A) (A) (A) (A) (A) (A) (A)
                 (A) (A) (A) (A) (A) (A) (A) (A) (A) (A) (A) (A)
                 (A) (A) (A) (A) (A) (A) (A) (A) (A) (A) (A) (A)
                 (A) (A) (A) (A) (A) (A) (A) (A) (A) (A) (A) (A)
                 (A) (A) (A) (A) (A) (A) (A) (A) (A) (A) (A) (A)
                 (A) (A) (A) (A) (A) (A) (A) (A) (A) (A) (A) (A)
                 (A) (A) (A) (A) (A) (A) (A) (A) (A) (A) (A) (A)
                 (A) (A) (A) (A) (A) (A) (A) (A) (A) (A) (A) (A)
                 (A) (A) (A) (A) (A) (A) (A) (A) (A) (A) (A) (A)
                 (A) (A) (A) (A) (A) (A) (A) (A) (A) (A) (A) (A)
                 (A) (A) (A) (A) (A) (A) (A) (A) (A) (A) (A) (A)
                 (A) (A) (A) (A) (A) (A) (A) (A) (A) (A) (A) (A)
                 (A) (A) (A) (A) (A) (A) (A) (A) (A) (A) (A) (A)
                 (A) (A) (A) (A) (A)
 The electronic state is 1-A.
 Alpha  occ. eigenvalues --  -19.15049 -19.11578 -19.10892 -14.37260 -14.36900
 Alpha  occ. eigenvalues --  -10.29198 -10.28442 -10.23149 -10.22851 -10.22521
 Alpha  occ. eigenvalues --  -10.22502 -10.21591 -10.21320 -10.19425  -1.03724
 Alpha  occ. eigenvalues --   -1.03321  -1.02792  -0.93599  -0.93102  -0.77221
 Alpha  occ. eigenvalues --   -0.75597  -0.72572  -0.71236  -0.68306  -0.67339
 Alpha  occ. eigenvalues --   -0.62158  -0.55953  -0.53960  -0.51909  -0.49672
 Alpha  occ. eigenvalues --   -0.49011  -0.47897  -0.47292  -0.46799  -0.46262
 Alpha  occ. eigenvalues --   -0.44872  -0.43945  -0.42061  -0.41481  -0.40860
 Alpha  occ. eigenvalues --   -0.40269  -0.40177  -0.39841  -0.38847  -0.37704
 Alpha  occ. eigenvalues --   -0.37324  -0.36767  -0.35759  -0.35192  -0.32142
 Alpha  occ. eigenvalues --   -0.26131  -0.25695  -0.25368  -0.23968  -0.23557
 Alpha virt. eigenvalues --    0.01174   0.02478   0.08278   0.09224   0.09549
 Alpha virt. eigenvalues --    0.11259   0.13031   0.13394   0.13704   0.14625
 Alpha virt. eigenvalues --    0.15338   0.15604   0.16246   0.16351   0.16916
 Alpha virt. eigenvalues --    0.17225   0.17520   0.17971   0.18621   0.19576
 Alpha virt. eigenvalues --    0.20457   0.21141   0.21710   0.22157   0.22741
 Alpha virt. eigenvalues --    0.23231   0.25883   0.27920   0.29378   0.32472
 Alpha virt. eigenvalues --    0.35097   0.37346   0.41455   0.46755   0.48252
 Alpha virt. eigenvalues --    0.50179   0.50380   0.50958   0.51725   0.53478
 Alpha virt. eigenvalues --    0.54246   0.54763   0.56101   0.56547   0.57529
 Alpha virt. eigenvalues --    0.59710   0.60388   0.62369   0.63877   0.65303
 Alpha virt. eigenvalues --    0.65723   0.67173   0.69097   0.69366   0.71055
 Alpha virt. eigenvalues --    0.72242   0.73364   0.75041   0.76045   0.76616
 Alpha virt. eigenvalues --    0.78787   0.79905   0.81059   0.81570   0.82030
 Alpha virt. eigenvalues --    0.83816   0.84046   0.84632   0.85583   0.85663
 Alpha virt. eigenvalues --    0.86535   0.87657   0.88196   0.89664   0.90816
 Alpha virt. eigenvalues --    0.91650   0.92374   0.93809   0.95098   0.95965
 Alpha virt. eigenvalues --    0.96082   0.96634   0.98057   0.99102   1.00578
 Alpha virt. eigenvalues --    1.02367   1.04170   1.06161   1.09307   1.11606
 Alpha virt. eigenvalues --    1.14238   1.14656   1.18203   1.20099   1.26018
 Alpha virt. eigenvalues --    1.27181   1.27563   1.30147   1.31692   1.32280
 Alpha virt. eigenvalues --    1.34268   1.37386   1.37711   1.38254   1.41314
 Alpha virt. eigenvalues --    1.41883   1.45493   1.46954   1.48485   1.50831
 Alpha virt. eigenvalues --    1.54921   1.58115   1.60404   1.61735   1.65351
 Alpha virt. eigenvalues --    1.67655   1.70202   1.71641   1.73326   1.74961
 Alpha virt. eigenvalues --    1.76314   1.77112   1.77882   1.81474   1.83405
 Alpha virt. eigenvalues --    1.83763   1.84299   1.86608   1.88170   1.88274
 Alpha virt. eigenvalues --    1.89442   1.90092   1.90925   1.93194   1.94544
 Alpha virt. eigenvalues --    1.96091   1.96963   1.97508   1.98999   2.00804
 Alpha virt. eigenvalues --    2.01170   2.02651   2.02941   2.03131   2.03392
 Alpha virt. eigenvalues --    2.04006   2.04537   2.05223   2.05807   2.07186
 Alpha virt. eigenvalues --    2.08870   2.09456   2.10144   2.10993   2.11555
 Alpha virt. eigenvalues --    2.13093   2.13529   2.15813   2.18639   2.22857
 Alpha virt. eigenvalues --    2.23963   2.25432   2.26717   2.27971   2.29046
 Alpha virt. eigenvalues --    2.31682   2.33073   2.34480   2.37938   2.39463
 Alpha virt. eigenvalues --    2.42044   2.43147   2.44542   2.47951   2.50062
 Alpha virt. eigenvalues --    2.51469   2.52347   2.55243   2.55592   2.56604
 Alpha virt. eigenvalues --    2.58635   2.60129   2.61042   2.63104   2.64984
 Alpha virt. eigenvalues --    2.65367   2.66592   2.67635   2.69424   2.69869
 Alpha virt. eigenvalues --    2.70714   2.72299   2.74134   2.74417   2.79448
 Alpha virt. eigenvalues --    2.80495   2.81804   2.84041   2.84790   2.86023
 Alpha virt. eigenvalues --    2.87400   2.88716   2.89685   2.90312   2.91441
 Alpha virt. eigenvalues --    2.96490   2.97584   3.00372   3.05096   3.07171
 Alpha virt. eigenvalues --    3.11495   3.12273   3.16062   3.17708   3.18326
 Alpha virt. eigenvalues --    3.23137   3.25992   3.27877   3.34897   3.37093
 Alpha virt. eigenvalues --    3.38489   3.39478   3.42287   3.43092   3.43830
 Alpha virt. eigenvalues --    3.43966   3.44429   3.46084   3.49570   3.50964
 Alpha virt. eigenvalues --    3.55213   3.94882   4.02329   4.05484   4.09208
 Alpha virt. eigenvalues --    4.19284   4.28471   4.38570   4.39955   4.45357
 Alpha virt. eigenvalues --    4.51074   4.54722   4.63842   4.69833   4.74825
          Condensed to atoms (all electrons):
              1          2          3          4          5          6
     1  C    5.137827   0.352613  -0.077137  -0.117397   0.005497  -0.000122
     2  C    0.352613   4.386824   0.554829   0.268885  -0.025871  -0.001123
     3  O   -0.077137   0.554829   8.096925  -0.096963  -0.007499  -0.000249
     4  N   -0.117397   0.268885  -0.096963   7.086128   0.286678  -0.046791
     5  C    0.005497  -0.025871  -0.007499   0.286678   5.018703   0.331669
     6  C   -0.000122  -0.001123  -0.000249  -0.046791   0.331669   4.443818
     7  O    0.000000  -0.000099  -0.000003  -0.002699  -0.079138   0.524981
     8  N    0.000006   0.000711   0.000195   0.000721  -0.098252   0.293899
     9  C   -0.000148   0.000037  -0.013197   0.002077   0.000925  -0.024601
    10  C    0.000000  -0.000024  -0.000001  -0.000158   0.005723  -0.031189
    11  H    0.368049  -0.023108   0.005031   0.004586  -0.000118   0.000003
    12  H    0.361585  -0.021769   0.001905   0.001719  -0.000101   0.000012
    13  H    0.366216  -0.022136   0.000902   0.001354  -0.000205  -0.000006
    14  H   -0.000125   0.003377   0.000785  -0.039758   0.367522  -0.038800
    15  H    0.001128  -0.005675   0.018517  -0.039461   0.355781  -0.025791
    16  H    0.000530   0.000676   0.032213  -0.005184   0.002592  -0.004449
    17  H    0.000004   0.000035   0.000060   0.000035  -0.000223   0.001749
    18  H    0.000000  -0.000004   0.000144   0.000001  -0.000090  -0.001060
    19  H    0.000000   0.000001   0.000000   0.000023  -0.000169   0.001457
    20  H    0.000000   0.000000   0.000000  -0.000018   0.001036  -0.003912
    21  H    0.000000   0.000000   0.000000  -0.000002  -0.000147   0.001147
    22  C    0.001663  -0.027750   0.002320   0.242909  -0.040316  -0.000697
    23  H    0.006684  -0.009681   0.000101  -0.033068   0.002869   0.000057
    24  H   -0.000226   0.002857  -0.000089  -0.031853  -0.004699  -0.002650
    25  C   -0.002131  -0.000559   0.000006  -0.048935  -0.000250   0.001304
    26  H   -0.001258   0.002120  -0.000079   0.003276   0.000170  -0.000073
    27  H    0.000065  -0.000103   0.000002   0.000997   0.000032   0.003226
    28  O   -0.000019   0.000024   0.000000   0.001983  -0.000001  -0.000036
    29  C    0.000002  -0.000003   0.000000  -0.000121   0.000001   0.000000
    30  H    0.000000   0.000000   0.000000   0.000001   0.000000   0.000000
    31  H    0.000000   0.000000   0.000000   0.000004  -0.000001   0.000003
    32  H   -0.000002   0.000000   0.000000   0.000014   0.000000   0.000000
              7          8          9         10         11         12
     1  C    0.000000   0.000006  -0.000148   0.000000   0.368049   0.361585
     2  C   -0.000099   0.000711   0.000037  -0.000024  -0.023108  -0.021769
     3  O   -0.000003   0.000195  -0.013197  -0.000001   0.005031   0.001905
     4  N   -0.002699   0.000721   0.002077  -0.000158   0.004586   0.001719
     5  C   -0.079138  -0.098252   0.000925   0.005723  -0.000118  -0.000101
     6  C    0.524981   0.293899  -0.024601  -0.031189   0.000003   0.000012
     7  O    8.145434  -0.093859   0.002702  -0.013064   0.000000   0.000000
     8  N   -0.093859   6.984830   0.285261   0.291538   0.000000  -0.000001
     9  C    0.002702   0.285261   4.871129  -0.050305   0.000002   0.000015
    10  C   -0.013064   0.291538  -0.050305   4.828037   0.000000   0.000000
    11  H    0.000000   0.000000   0.000002   0.000000   0.545293  -0.022901
    12  H    0.000000  -0.000001   0.000015   0.000000  -0.022901   0.575435
    13  H    0.000000   0.000000   0.000000   0.000000  -0.021465  -0.028479
    14  H    0.002512   0.004148   0.000287  -0.000172   0.000002  -0.000010
    15  H    0.003168   0.001586  -0.002354  -0.000225  -0.000033  -0.000019
    16  H    0.000003  -0.025278   0.367223   0.003889  -0.000002  -0.000046
    17  H   -0.000036  -0.043287   0.384237  -0.003759   0.000000   0.000000
    18  H   -0.000044  -0.045309   0.378580  -0.001266   0.000000   0.000000
    19  H    0.000732  -0.043408  -0.002770   0.384596   0.000000   0.000000
    20  H    0.025000  -0.035682   0.004306   0.382556   0.000000   0.000000
    21  H    0.000714  -0.045541  -0.000574   0.386528   0.000000   0.000000
    22  C    0.004398  -0.000218  -0.000090   0.000006   0.000300  -0.001255
    23  H    0.000078   0.000000   0.000002   0.000000   0.000026  -0.002521
    24  H    0.004163   0.000081  -0.000002  -0.000002  -0.000010   0.000185
    25  C   -0.007481   0.000575   0.000015  -0.000029   0.000027   0.000148
    26  H    0.000188  -0.000044  -0.000001  -0.000003  -0.000040   0.004085
    27  H    0.012838  -0.001223   0.000005   0.000145   0.000000  -0.000055
    28  O    0.000032   0.000000   0.000000   0.000000   0.000000  -0.000002
    29  C    0.000001   0.000000   0.000000   0.000000   0.000000  -0.000008
    30  H    0.000000   0.000000   0.000000   0.000000   0.000000   0.000000
    31  H   -0.000022   0.000000   0.000000   0.000000   0.000000   0.000000
    32  H    0.000000   0.000000   0.000000   0.000000   0.000000   0.000003
             13         14         15         16         17         18
     1  C    0.366216  -0.000125   0.001128   0.000530   0.000004   0.000000
     2  C   -0.022136   0.003377  -0.005675   0.000676   0.000035  -0.000004
     3  O    0.000902   0.000785   0.018517   0.032213   0.000060   0.000144
     4  N    0.001354  -0.039758  -0.039461  -0.005184   0.000035   0.000001
     5  C   -0.000205   0.367522   0.355781   0.002592  -0.000223  -0.000090
     6  C   -0.000006  -0.038800  -0.025791  -0.004449   0.001749  -0.001060
     7  O    0.000000   0.002512   0.003168   0.000003  -0.000036  -0.000044
     8  N    0.000000   0.004148   0.001586  -0.025278  -0.043287  -0.045309
     9  C    0.000000   0.000287  -0.002354   0.367223   0.384237   0.378580
    10  C    0.000000  -0.000172  -0.000225   0.003889  -0.003759  -0.001266
    11  H   -0.021465   0.000002  -0.000033  -0.000002   0.000000   0.000000
    12  H   -0.028479  -0.000010  -0.000019  -0.000046   0.000000   0.000000
    13  H    0.565284   0.000020  -0.000043  -0.000002   0.000000   0.000000
    14  H    0.000020   0.591048  -0.022033   0.000003  -0.000018   0.000042
    15  H   -0.000043  -0.022033   0.564628  -0.001925   0.000176   0.000405
    16  H   -0.000002   0.000003  -0.001925   0.509064  -0.023849  -0.025180
    17  H    0.000000  -0.000018   0.000176  -0.023849   0.613151  -0.046814
    18  H    0.000000   0.000042   0.000405  -0.025180  -0.046814   0.622164
    19  H    0.000000   0.000000   0.000000   0.000006   0.007215  -0.001450
    20  H    0.000000  -0.000028  -0.000046  -0.000183  -0.000007  -0.000072
    21  H    0.000000   0.000012  -0.000013   0.000005  -0.002429   0.005991
    22  C   -0.002711  -0.008240   0.004223   0.000005   0.000012  -0.000001
    23  H    0.002276   0.000617  -0.000128  -0.000003   0.000000   0.000000
    24  H    0.000155   0.006962   0.000486  -0.000010   0.000000   0.000000
    25  C    0.000080  -0.000497  -0.000209   0.000015  -0.000014   0.000001
    26  H    0.000100   0.000010   0.000022  -0.000004   0.000006   0.000000
    27  H   -0.000008   0.000152  -0.000008  -0.000004   0.000015  -0.000002
    28  O   -0.000014   0.000005   0.000001   0.000000   0.000000   0.000000
    29  C    0.000000   0.000000   0.000000   0.000000   0.000000   0.000000
    30  H    0.000000   0.000000   0.000000   0.000000   0.000000   0.000000
    31  H    0.000000   0.000000   0.000000   0.000000   0.000000   0.000000
    32  H    0.000000   0.000000   0.000000   0.000000   0.000000   0.000000
             19         20         21         22         23         24
     1  C    0.000000   0.000000   0.000000   0.001663   0.006684  -0.000226
     2  C    0.000001   0.000000   0.000000  -0.027750  -0.009681   0.002857
     3  O    0.000000   0.000000   0.000000   0.002320   0.000101  -0.000089
     4  N    0.000023  -0.000018  -0.000002   0.242909  -0.033068  -0.031853
     5  C   -0.000169   0.001036  -0.000147  -0.040316   0.002869  -0.004699
     6  C    0.001457  -0.003912   0.001147  -0.000697   0.000057  -0.002650
     7  O    0.000732   0.025000   0.000714   0.004398   0.000078   0.004163
     8  N   -0.043408  -0.035682  -0.045541  -0.000218   0.000000   0.000081
     9  C   -0.002770   0.004306  -0.000574  -0.000090   0.000002  -0.000002
    10  C    0.384596   0.382556   0.386528   0.000006   0.000000  -0.000002
    11  H    0.000000   0.000000   0.000000   0.000300   0.000026  -0.000010
    12  H    0.000000   0.000000   0.000000  -0.001255  -0.002521   0.000185
    13  H    0.000000   0.000000   0.000000  -0.002711   0.002276   0.000155
    14  H    0.000000  -0.000028   0.000012  -0.008240   0.000617   0.006962
    15  H    0.000000  -0.000046  -0.000013   0.004223  -0.000128   0.000486
    16  H    0.000006  -0.000183   0.000005   0.000005  -0.000003  -0.000010
    17  H    0.007215  -0.000007  -0.002429   0.000012   0.000000   0.000000
    18  H   -0.001450  -0.000072   0.005991  -0.000001   0.000000   0.000000
    19  H    0.611317  -0.025780  -0.043763   0.000002   0.000000   0.000000
    20  H   -0.025780   0.517751  -0.023696  -0.000005   0.000000  -0.000004
    21  H   -0.043763  -0.023696   0.608151   0.000000   0.000000   0.000000
    22  C    0.000002  -0.000005   0.000000   4.908333   0.375240   0.375093
    23  H    0.000000   0.000000   0.000000   0.375240   0.605767  -0.028745
    24  H    0.000000  -0.000004   0.000000   0.375093  -0.028745   0.579766
    25  C   -0.000018  -0.000008   0.000001   0.360658  -0.048579  -0.041714
    26  H    0.000002  -0.000002   0.000000  -0.048010  -0.006669   0.006502
    27  H    0.000090   0.000077  -0.000003  -0.031095   0.006407  -0.008511
    28  O    0.000000   0.000000   0.000000  -0.040011   0.006721   0.005053
    29  C    0.000000   0.000000   0.000000   0.004547  -0.000115  -0.000088
    30  H    0.000000   0.000000   0.000000  -0.000270   0.000006   0.000009
    31  H    0.000000   0.000000   0.000000   0.000101   0.000072  -0.000069
    32  H    0.000000   0.000000   0.000000  -0.000028  -0.000064   0.000038
             25         26         27         28         29         30
     1  C   -0.002131  -0.001258   0.000065  -0.000019   0.000002   0.000000
     2  C   -0.000559   0.002120  -0.000103   0.000024  -0.000003   0.000000
     3  O    0.000006  -0.000079   0.000002   0.000000   0.000000   0.000000
     4  N   -0.048935   0.003276   0.000997   0.001983  -0.000121   0.000001
     5  C   -0.000250   0.000170   0.000032  -0.000001   0.000001   0.000000
     6  C    0.001304  -0.000073   0.003226  -0.000036   0.000000   0.000000
     7  O   -0.007481   0.000188   0.012838   0.000032   0.000001   0.000000
     8  N    0.000575  -0.000044  -0.001223   0.000000   0.000000   0.000000
     9  C    0.000015  -0.000001   0.000005   0.000000   0.000000   0.000000
    10  C   -0.000029  -0.000003   0.000145   0.000000   0.000000   0.000000
    11  H    0.000027  -0.000040   0.000000   0.000000   0.000000   0.000000
    12  H    0.000148   0.004085  -0.000055  -0.000002  -0.000008   0.000000
    13  H    0.000080   0.000100  -0.000008  -0.000014   0.000000   0.000000
    14  H   -0.000497   0.000010   0.000152   0.000005   0.000000   0.000000
    15  H   -0.000209   0.000022  -0.000008   0.000001   0.000000   0.000000
    16  H    0.000015  -0.000004  -0.000004   0.000000   0.000000   0.000000
    17  H   -0.000014   0.000006   0.000015   0.000000   0.000000   0.000000
    18  H    0.000001   0.000000  -0.000002   0.000000   0.000000   0.000000
    19  H   -0.000018   0.000002   0.000090   0.000000   0.000000   0.000000
    20  H   -0.000008  -0.000002   0.000077   0.000000   0.000000   0.000000
    21  H    0.000001   0.000000  -0.000003   0.000000   0.000000   0.000000
    22  C    0.360658  -0.048010  -0.031095  -0.040011   0.004547  -0.000270
    23  H   -0.048579  -0.006669   0.006407   0.006721  -0.000115   0.000006
    24  H   -0.041714   0.006502  -0.008511   0.005053  -0.000088   0.000009
    25  C    4.807896   0.355082   0.361830   0.226044  -0.034344   0.005423
    26  H    0.355082   0.702039  -0.055158  -0.039806  -0.005133  -0.000126
    27  H    0.361830  -0.055158   0.621540  -0.033833  -0.006422  -0.000056
    28  O    0.226044  -0.039806  -0.033833   8.211980   0.259245  -0.033125
    29  C   -0.034344  -0.005133  -0.006422   0.259245   4.706102   0.394059
    30  H    0.005423  -0.000126  -0.000056  -0.033125   0.394059   0.588960
    31  H   -0.007591  -0.002609   0.012605  -0.037617   0.372958  -0.034293
    32  H   -0.009645   0.012404  -0.002580  -0.037586   0.368869  -0.035799
             31         32
     1  C    0.000000  -0.000002
     2  C    0.000000   0.000000
     3  O    0.000000   0.000000
     4  N    0.000004   0.000014
     5  C   -0.000001   0.000000
     6  C    0.000003   0.000000
     7  O   -0.000022   0.000000
     8  N    0.000000   0.000000
     9  C    0.000000   0.000000
    10  C    0.000000   0.000000
    11  H    0.000000   0.000000
    12  H    0.000000   0.000003
    13  H    0.000000   0.000000
    14  H    0.000000   0.000000
    15  H    0.000000   0.000000
    16  H    0.000000   0.000000
    17  H    0.000000   0.000000
    18  H    0.000000   0.000000
    19  H    0.000000   0.000000
    20  H    0.000000   0.000000
    21  H    0.000000   0.000000
    22  C    0.000101  -0.000028
    23  H    0.000072  -0.000064
    24  H   -0.000069   0.000038
    25  C   -0.007591  -0.009645
    26  H   -0.002609   0.012404
    27  H    0.012605  -0.002580
    28  O   -0.037617  -0.037586
    29  C    0.372958   0.368869
    30  H   -0.034293  -0.035799
    31  H    0.649005  -0.052423
    32  H   -0.052423   0.668593
 Mulliken atomic charges:
              1
     1  C   -0.403306
     2  C    0.564917
     3  O   -0.518719
     4  N   -0.438983
     5  C   -0.122119
     6  C    0.578227
     7  O   -0.530500
     8  N   -0.431450
     9  C   -0.202761
    10  C   -0.182820
    11  H    0.144357
    12  H    0.132075
    13  H    0.138678
    14  H    0.132177
    15  H    0.147845
    16  H    0.169896
    17  H    0.113745
    18  H    0.113963
    19  H    0.111918
    20  H    0.158718
    21  H    0.113622
    22  C   -0.079111
    23  H    0.122654
    24  H    0.137321
    25  C    0.082901
    26  H    0.073009
    27  H    0.119035
    28  O   -0.489037
    29  C   -0.059550
    30  H    0.115213
    31  H    0.099877
    32  H    0.088207
 Sum of Mulliken atomic charges =   0.00000
 Mulliken charges with hydrogens summed into heavy atoms:
              1
     1  C    0.011805
     2  C    0.564917
     3  O   -0.518719
     4  N   -0.438983
     5  C    0.157903
     6  C    0.578227
     7  O   -0.530500
     8  N   -0.431450
     9  C    0.194843
    10  C    0.201438
    22  C    0.180863
    25  C    0.274945
    28  O   -0.489037
    29  C    0.243747
 Sum of Mulliken charges with hydrogens summed into heavy atoms =   0.00000
 Electronic spatial extent (au):  <R**2>=           3441.0961
 Charge=              0.0000 electrons
 Dipole moment (field-independent basis, Debye):
    X=              0.2601    Y=             -0.3293    Z=             -1.8702  Tot=              1.9167
 Quadrupole moment (field-independent basis, Debye-Ang):
   XX=            -78.5518   YY=            -91.1735   ZZ=            -83.4006
   XY=              5.4187   XZ=             -0.9521   YZ=              7.0583
 Traceless Quadrupole moment (field-independent basis, Debye-Ang):
   XX=              5.8235   YY=             -6.7982   ZZ=              0.9747
   XY=              5.4187   XZ=             -0.9521   YZ=              7.0583
 Octapole moment (field-independent basis, Debye-Ang**2):
  XXX=            -19.4731  YYY=            -19.9360  ZZZ=              2.4024  XYY=             30.2668
  XXY=            -20.8588  XXZ=            -13.5933  XZZ=              1.0236  YZZ=              5.8905
  YYZ=            -10.3683  XYZ=             -2.1385
 Hexadecapole moment (field-independent basis, Debye-Ang**3):
 XXXX=          -2308.2351 YYYY=          -1634.7357 ZZZZ=           -415.6400 XXXY=            -40.8606
 XXXZ=            -19.5525 YYYX=             46.3431 YYYZ=             18.0283 ZZZX=              3.7506
 ZZZY=             -0.2374 XXYY=           -620.4936 XXZZ=           -462.8740 YYZZ=           -343.5798
 XXYZ=             27.5386 YYXZ=             -3.3280 ZZXY=             -6.4462
 N-N= 9.810139972130D+02 E-N=-3.567799102261D+03  KE= 6.826178577443D+02
 Calling FoFJK, ICntrl=      2127 FMM=F ISym2X=0 I1Cent= 0 IOpClX= 0 NMat=1 NMatS=1 NMatT=0.
 ***** Axes restored to original set *****
 -------------------------------------------------------------------
 Center     Atomic                   Forces (Hartrees/Bohr)
 Number     Number              X              Y              Z
 -------------------------------------------------------------------
      1        6           0.000000399    0.000005465    0.000009825
      2        6          -0.000257237   -0.000550817   -0.000909582
      3        8           0.000002745   -0.000003156    0.000002999
      4        7           0.000135691    0.000969883    0.001054522
      5        6           0.000667987   -0.000827781    0.000479763
      6        6          -0.000538108    0.000405578   -0.000617668
      7        8          -0.000003877    0.000000771   -0.000004280
      8        7          -0.000008468    0.000003711   -0.000001385
      9        6          -0.000002432    0.000002618   -0.000001633
     10        6          -0.000000012   -0.000001727   -0.000003017
     11        1          -0.000001168    0.000000658    0.000002484
     12        1          -0.000001243   -0.000001237   -0.000000013
     13        1           0.000001952   -0.000002329   -0.000000145
     14        1           0.000000571   -0.000001268    0.000002142
     15        1           0.000000065    0.000000688    0.000005167
     16        1          -0.000000561    0.000000308    0.000002585
     17        1          -0.000000615    0.000000654    0.000001417
     18        1           0.000000504   -0.000001360    0.000002126
     19        1           0.000000325    0.000000628   -0.000000789
     20        1          -0.000000343   -0.000000090   -0.000002030
     21        1          -0.000000075    0.000000928   -0.000001091
     22        6          -0.000000384   -0.000005127    0.000001133
     23        1           0.000001657   -0.000001033   -0.000001159
     24        1          -0.000000161   -0.000001139   -0.000001069
     25        6           0.000000264   -0.000003826   -0.000001924
     26        1          -0.000000408    0.000002885   -0.000000246
     27        1           0.000000727   -0.000000063   -0.000002258
     28        8           0.000005042    0.000004327   -0.000006023
     29        6          -0.000002146   -0.000000427    0.000000864
     30        1           0.000000066    0.000000816   -0.000003232
     31        1          -0.000000770   -0.000000090   -0.000003676
     32        1           0.000000011    0.000001551   -0.000003806
 -------------------------------------------------------------------
 Cartesian Forces:  Max     0.001054522 RMS     0.000238610

 GradGradGradGradGradGradGradGradGradGradGradGradGradGradGradGradGradGrad
 Berny optimization.
 Internal  Forces:  Max     0.000935664 RMS     0.000127068
 Search for a local minimum.
 Step number   1 out of a maximum of  155 on scan point     1 out of    37
 All quantities printed in internal units (Hartrees-Bohrs-Radians)
 Mixed Optimization -- En-DIIS/RFO-DIIS
 Second derivative matrix not updated -- first step.
 ITU=  0
     Eigenvalues ---    0.00344   0.00485   0.00745   0.00824   0.00918
     Eigenvalues ---    0.00932   0.01060   0.01100   0.01258   0.01493
     Eigenvalues ---    0.01526   0.01993   0.02127   0.02810   0.04030
     Eigenvalues ---    0.05462   0.05476   0.05889   0.06426   0.06925
     Eigenvalues ---    0.07177   0.07467   0.07506   0.07583   0.07631
     Eigenvalues ---    0.09593   0.09867   0.10037   0.10512   0.10878
     Eigenvalues ---    0.10987   0.12997   0.13531   0.16000   0.16000
     Eigenvalues ---    0.16000   0.16000   0.16000   0.16000   0.16000
     Eigenvalues ---    0.16000   0.16000   0.16000   0.16000   0.16000
     Eigenvalues ---    0.21949   0.22002   0.22051   0.24661   0.24829
     Eigenvalues ---    0.24999   0.24999   0.24999   0.25000   0.25000
     Eigenvalues ---    0.25000   0.25000   0.28735   0.29252   0.30246
     Eigenvalues ---    0.33229   0.33493   0.33622   0.33866   0.33869
     Eigenvalues ---    0.33990   0.34040   0.34063   0.34187   0.34326
     Eigenvalues ---    0.34449   0.34507   0.34522   0.34541   0.34894
     Eigenvalues ---    0.34900   0.35019   0.35096   0.36089   0.36275
     Eigenvalues ---    0.37150   0.37284   0.43220   0.43609   0.49618
     Eigenvalues ---    0.51535   0.89833   0.906041000.000001000.00000
     Eigenvalues --- 1000.000001000.000001000.000001000.000001000.00000
     Eigenvalues --- 1000.000001000.000001000.000001000.000001000.00000
     Eigenvalues --- 1000.000001000.000001000.000001000.000001000.00000
     Eigenvalues --- 1000.000001000.000001000.000001000.000001000.00000
     Eigenvalues --- 1000.000001000.000001000.000001000.000001000.00000
     Eigenvalues --- 1000.000001000.000001000.000001000.000001000.00000
     Eigenvalues --- 1000.000001000.000001000.000001000.000001000.00000
     Eigenvalues --- 1000.000001000.000001000.000001000.000001000.00000
     Eigenvalues --- 1000.000001000.000001000.000001000.000001000.00000
     Eigenvalues --- 1000.000001000.000001000.000001000.000001000.00000
     Eigenvalues --- 1000.000001000.000001000.000001000.000001000.00000
 RFO step:  Lambda= 0.00000000D+00 EMin= 3.44471198D-03
 Linear search not attempted -- first point.
 Iteration  1 RMS(Cart)=  0.00012941 RMS(Int)=  0.00000001
 Iteration  2 RMS(Cart)=  0.00000002 RMS(Int)=  0.00000000
 Iteration  1 RMS(Cart)=  0.00000000 RMS(Int)=  0.00000000
 Variable       Old X    -DE/DX   Delta X   Delta X   Delta X     New X
                                 (Linear)    (Quad)   (Total)
    R1        2.87475   0.00000   0.00000   0.00000   0.00000   2.87475
    R2        2.05848   0.00000   0.00000   0.00000   0.00000   2.05848
    R3        2.06578   0.00000   0.00000   0.00000   0.00000   2.06579
    R4        2.07016   0.00000   0.00000   0.00000   0.00000   2.07015
    R5        2.32656   0.00000   0.00000   0.00000   0.00000   2.32656
    R6        2.60253   0.00000   0.00000   0.00000   0.00000   2.60253
    R7        2.77242   0.00000   0.00000   0.00000   0.00000   2.77242
    R8        2.76954   0.00000   0.00000   0.00001   0.00001   2.76955
    R9        2.90560   0.00000   0.00000  -0.00001  -0.00001   2.90558
   R10        2.06783   0.00000   0.00000   0.00000   0.00000   2.06783
   R11        2.05520   0.00000   0.00000   0.00000   0.00000   2.05520
   R12        2.33010   0.00000   0.00000  -0.00001  -0.00001   2.33010
   R13        2.58347   0.00001   0.00000   0.00002   0.00002   2.58349
   R14        2.75621   0.00000   0.00000   0.00000   0.00000   2.75621
   R15        2.75420   0.00000   0.00000   0.00001   0.00001   2.75420
   R16        2.05838   0.00000   0.00000   0.00000   0.00000   2.05838
   R17        2.07224   0.00000   0.00000   0.00000   0.00000   2.07224
   R18        2.07557   0.00000   0.00000   0.00000   0.00000   2.07557
   R19        2.07346   0.00000   0.00000   0.00000   0.00000   2.07346
   R20        2.05645   0.00000   0.00000   0.00000   0.00000   2.05645
   R21        2.07263   0.00000   0.00000   0.00000   0.00000   2.07263
   R22        2.06427   0.00000   0.00000   0.00000   0.00000   2.06427
   R23        2.06483   0.00000   0.00000   0.00000   0.00000   2.06482
   R24        2.89480   0.00000   0.00000   0.00001   0.00001   2.89481
   R25        2.08652   0.00000   0.00000   0.00000   0.00000   2.08652
   R26        2.07552   0.00000   0.00000   0.00000   0.00000   2.07552
   R27        2.67399   0.00000   0.00000   0.00000   0.00000   2.67399
   R28        2.66926   0.00000   0.00000   0.00000   0.00000   2.66925
   R29        2.06459   0.00000   0.00000   0.00000   0.00000   2.06459
   R30        2.07973   0.00000   0.00000   0.00000   0.00000   2.07973
   R31        2.08194   0.00000   0.00000   0.00000   0.00000   2.08194
    A1        1.87180   0.00000   0.00000   0.00000   0.00000   1.87180
    A2        1.96920   0.00000   0.00000  -0.00003  -0.00003   1.96917
    A3        1.93576   0.00000   0.00000   0.00003   0.00003   1.93579
    A4        1.91053   0.00000   0.00000   0.00000   0.00000   1.91052
    A5        1.89681   0.00000   0.00000   0.00002   0.00002   1.89683
    A6        1.87879   0.00000   0.00000  -0.00001  -0.00001   1.87878
    A7        2.10079   0.00000   0.00000   0.00001   0.00001   2.10080
    A8        2.05476   0.00000   0.00000  -0.00002  -0.00002   2.05475
    A9        2.12760   0.00000   0.00000   0.00000   0.00000   2.12761
   A10        2.06095  -0.00003   0.00000   0.00001   0.00001   2.06095
   A11        2.15587   0.00008   0.00000  -0.00001  -0.00001   2.15586
   A12        2.05724  -0.00001   0.00000   0.00001   0.00001   2.05725
   A13        1.97241   0.00003   0.00000   0.00003   0.00003   1.97244
   A14        1.89744   0.00004   0.00000  -0.00002  -0.00002   1.89743
   A15        1.87307  -0.00003   0.00000   0.00000   0.00000   1.87308
   A16        1.82663   0.00042   0.00000  -0.00001  -0.00001   1.82662
   A17        1.98851  -0.00042   0.00000   0.00002   0.00002   1.98853
   A18        1.90333  -0.00001   0.00000  -0.00003  -0.00003   1.90330
   A19        2.06767   0.00001   0.00000   0.00002   0.00002   2.06769
   A20        2.07762   0.00000   0.00000  -0.00002  -0.00002   2.07760
   A21        2.13787   0.00000   0.00000  -0.00001  -0.00001   2.13786
   A22        2.20304   0.00000   0.00000   0.00002   0.00002   2.20305
   A23        2.06887   0.00000   0.00000   0.00000   0.00000   2.06887
   A24        2.01125   0.00000   0.00000  -0.00001  -0.00001   2.01124
   A25        1.95765   0.00000   0.00000   0.00001   0.00001   1.95766
   A26        1.90398   0.00000   0.00000   0.00000   0.00000   1.90398
   A27        1.93314   0.00000   0.00000  -0.00002  -0.00002   1.93313
   A28        1.87954   0.00000   0.00000   0.00001   0.00001   1.87955
   A29        1.90819   0.00000   0.00000   0.00000   0.00000   1.90820
   A30        1.87889   0.00000   0.00000   0.00000   0.00000   1.87889
   A31        1.92899   0.00000   0.00000   0.00000   0.00000   1.92899
   A32        1.89645   0.00000   0.00000   0.00000   0.00000   1.89646
   A33        1.92258   0.00000   0.00000   0.00000   0.00000   1.92258
   A34        1.91211   0.00000   0.00000   0.00000   0.00000   1.91210
   A35        1.88801   0.00000   0.00000   0.00000   0.00000   1.88801
   A36        1.91575   0.00000   0.00000   0.00000   0.00000   1.91575
   A37        1.92249   0.00000   0.00000  -0.00001  -0.00001   1.92247
   A38        1.88826   0.00000   0.00000   0.00000   0.00000   1.88826
   A39        1.99060   0.00001   0.00000   0.00003   0.00003   1.99063
   A40        1.87251   0.00000   0.00000   0.00000   0.00000   1.87251
   A41        1.89197   0.00000   0.00000  -0.00003  -0.00003   1.89194
   A42        1.89435   0.00000   0.00000   0.00001   0.00001   1.89436
   A43        1.92617   0.00000   0.00000   0.00000   0.00000   1.92617
   A44        1.91957   0.00000   0.00000   0.00000   0.00000   1.91957
   A45        1.85885   0.00000   0.00000  -0.00001  -0.00001   1.85884
   A46        1.88510   0.00000   0.00000   0.00001   0.00001   1.88510
   A47        1.93440   0.00000   0.00000   0.00000   0.00000   1.93440
   A48        1.94020   0.00000   0.00000   0.00001   0.00001   1.94021
   A49        1.97094   0.00000   0.00000   0.00000   0.00000   1.97094
   A50        1.87206   0.00000   0.00000  -0.00001  -0.00001   1.87205
   A51        1.95061   0.00000   0.00000   0.00000   0.00000   1.95061
   A52        1.95146   0.00000   0.00000   0.00001   0.00001   1.95146
   A53        1.90124   0.00000   0.00000   0.00000   0.00000   1.90124
   A54        1.89824   0.00000   0.00000   0.00000   0.00000   1.89824
   A55        1.88916   0.00000   0.00000   0.00000   0.00000   1.88916
    D1       -0.14768   0.00000   0.00000   0.00016   0.00016  -0.14752
    D2        3.00193   0.00000   0.00000   0.00019   0.00019   3.00213
    D3       -2.25277   0.00000   0.00000   0.00018   0.00018  -2.25258
    D4        0.89684   0.00000   0.00000   0.00022   0.00022   0.89706
    D5        1.92105   0.00000   0.00000   0.00019   0.00019   1.92124
    D6       -1.21253   0.00000   0.00000   0.00023   0.00023  -1.21230
    D7        3.01591   0.00015   0.00000  -0.00002  -0.00002   3.01589
    D8        0.02236  -0.00015   0.00000  -0.00004  -0.00004   0.02232
    D9       -0.11754   0.00015   0.00000   0.00002   0.00002  -0.11752
   D10       -3.11109  -0.00015   0.00000   0.00000   0.00000  -3.11109
   D11        2.07118  -0.00094   0.00000   0.00000   0.00000   2.07118
   D12       -2.19210  -0.00037   0.00000  -0.00001  -0.00001  -2.19211
   D13       -0.13578  -0.00039   0.00000  -0.00005  -0.00005  -0.13583
   D14       -1.20997  -0.00064   0.00000   0.00002   0.00002  -1.20995
   D15        0.80994  -0.00008   0.00000   0.00001   0.00001   0.80995
   D16        2.86626  -0.00009   0.00000  -0.00003  -0.00003   2.86623
   D17        0.51907   0.00015   0.00000   0.00001   0.00001   0.51908
   D18        2.56083   0.00015   0.00000   0.00001   0.00001   2.56083
   D19       -1.61271   0.00015   0.00000   0.00004   0.00004  -1.61268
   D20       -2.47478  -0.00015   0.00000  -0.00001  -0.00001  -2.47479
   D21       -0.43302  -0.00015   0.00000  -0.00002  -0.00002  -0.43303
   D22        1.67662  -0.00015   0.00000   0.00001   0.00001   1.67664
   D23        1.50043   0.00022   0.00000  -0.00003  -0.00003   1.50040
   D24       -1.63265   0.00022   0.00000   0.00000   0.00000  -1.63265
   D25       -0.56127  -0.00010   0.00000  -0.00002  -0.00002  -0.56129
   D26        2.58883  -0.00010   0.00000   0.00001   0.00001   2.58884
   D27       -2.63873  -0.00013   0.00000   0.00001   0.00001  -2.63871
   D28        0.51138  -0.00013   0.00000   0.00005   0.00005   0.51142
   D29        0.02964   0.00000   0.00000  -0.00005  -0.00005   0.02959
   D30       -3.10341   0.00000   0.00000  -0.00011  -0.00011  -3.10352
   D31       -3.10309   0.00000   0.00000  -0.00002  -0.00002  -3.10310
   D32        0.04706   0.00000   0.00000  -0.00008  -0.00008   0.04698
   D33        0.21108   0.00000   0.00000  -0.00006  -0.00006   0.21102
   D34        2.29190   0.00000   0.00000  -0.00005  -0.00005   2.29185
   D35       -1.92624   0.00000   0.00000  -0.00006  -0.00006  -1.92630
   D36       -2.93881   0.00000   0.00000   0.00000   0.00000  -2.93882
   D37       -0.85799   0.00000   0.00000   0.00001   0.00001  -0.85799
   D38        1.20705   0.00000   0.00000   0.00000   0.00000   1.20705
   D39       -2.05450   0.00000   0.00000   0.00010   0.00010  -2.05440
   D40        0.04411   0.00000   0.00000   0.00010   0.00010   0.04420
   D41        2.14329   0.00000   0.00000   0.00010   0.00010   2.14338
   D42        1.09472   0.00000   0.00000   0.00004   0.00004   1.09476
   D43       -3.08986   0.00000   0.00000   0.00004   0.00004  -3.08982
   D44       -0.99068   0.00000   0.00000   0.00004   0.00004  -0.99064
   D45        0.89698   0.00000   0.00000  -0.00017  -0.00017   0.89680
   D46       -1.18114   0.00000   0.00000  -0.00018  -0.00018  -1.18132
   D47        2.99787   0.00000   0.00000  -0.00018  -0.00018   2.99769
   D48       -1.25148   0.00000   0.00000  -0.00015  -0.00015  -1.25163
   D49        2.95359   0.00000   0.00000  -0.00016  -0.00016   2.95342
   D50        0.84941   0.00000   0.00000  -0.00016  -0.00016   0.84925
   D51        3.00322   0.00000   0.00000  -0.00015  -0.00015   3.00308
   D52        0.92510   0.00000   0.00000  -0.00015  -0.00015   0.92495
   D53       -1.17907   0.00000   0.00000  -0.00016  -0.00016  -1.17923
   D54        3.03773   0.00000   0.00000  -0.00022  -0.00022   3.03751
   D55       -1.14988   0.00000   0.00000  -0.00023  -0.00023  -1.15010
   D56        0.94687   0.00000   0.00000  -0.00021  -0.00021   0.94665
   D57       -3.13335   0.00000   0.00000   0.00003   0.00003  -3.13332
   D58       -1.05061   0.00000   0.00000   0.00003   0.00003  -1.05058
   D59        1.07027   0.00000   0.00000   0.00003   0.00003   1.07031
         Item               Value     Threshold  Converged?
 Maximum Force            0.000011     0.000450     YES
 RMS     Force            0.000002     0.000300     YES
 Maximum Displacement     0.000641     0.001800     YES
 RMS     Displacement     0.000129     0.001200     YES
 Predicted change in Energy=-3.761666D-09
 Optimization completed.
    -- Stationary point found.
                           ----------------------------
                           !   Optimized Parameters   !
                           ! (Angstroms and Degrees)  !
 --------------------------                            --------------------------
 ! Name  Definition              Value          Derivative Info.                !
 --------------------------------------------------------------------------------
 ! R1    R(1,2)                  1.5213         -DE/DX =    0.0                 !
 ! R2    R(1,11)                 1.0893         -DE/DX =    0.0                 !
 ! R3    R(1,12)                 1.0932         -DE/DX =    0.0                 !
 ! R4    R(1,13)                 1.0955         -DE/DX =    0.0                 !
 ! R5    R(2,3)                  1.2312         -DE/DX =    0.0                 !
 ! R6    R(2,4)                  1.3772         -DE/DX =    0.0                 !
 ! R7    R(4,5)                  1.4671         -DE/DX =    0.0                 !
 ! R8    R(4,22)                 1.4656         -DE/DX =    0.0                 !
 ! R9    R(5,6)                  1.5376         -DE/DX =    0.0                 !
 ! R10   R(5,14)                 1.0942         -DE/DX =    0.0                 !
 ! R11   R(5,15)                 1.0876         -DE/DX =    0.0                 !
 ! R12   R(6,7)                  1.233          -DE/DX =    0.0                 !
 ! R13   R(6,8)                  1.3671         -DE/DX =    0.0                 !
 ! R14   R(8,9)                  1.4585         -DE/DX =    0.0                 !
 ! R15   R(8,10)                 1.4575         -DE/DX =    0.0                 !
 ! R16   R(9,16)                 1.0892         -DE/DX =    0.0                 !
 ! R17   R(9,17)                 1.0966         -DE/DX =    0.0                 !
 ! R18   R(9,18)                 1.0983         -DE/DX =    0.0                 !
 ! R19   R(10,19)                1.0972         -DE/DX =    0.0                 !
 ! R20   R(10,20)                1.0882         -DE/DX =    0.0                 !
 ! R21   R(10,21)                1.0968         -DE/DX =    0.0                 !
 ! R22   R(22,23)                1.0924         -DE/DX =    0.0                 !
 ! R23   R(22,24)                1.0927         -DE/DX =    0.0                 !
 ! R24   R(22,25)                1.5319         -DE/DX =    0.0                 !
 ! R25   R(25,26)                1.1041         -DE/DX =    0.0                 !
 ! R26   R(25,27)                1.0983         -DE/DX =    0.0                 !
 ! R27   R(25,28)                1.415          -DE/DX =    0.0                 !
 ! R28   R(28,29)                1.4125         -DE/DX =    0.0                 !
 ! R29   R(29,30)                1.0925         -DE/DX =    0.0                 !
 ! R30   R(29,31)                1.1005         -DE/DX =    0.0                 !
 ! R31   R(29,32)                1.1017         -DE/DX =    0.0                 !
 ! A1    A(2,1,11)             107.2461         -DE/DX =    0.0                 !
 ! A2    A(2,1,12)             112.8267         -DE/DX =    0.0                 !
 ! A3    A(2,1,13)             110.9108         -DE/DX =    0.0                 !
 ! A4    A(11,1,12)            109.4651         -DE/DX =    0.0                 !
 ! A5    A(11,1,13)            108.6795         -DE/DX =    0.0                 !
 ! A6    A(12,1,13)            107.6466         -DE/DX =    0.0                 !
 ! A7    A(1,2,3)              120.3663         -DE/DX =    0.0                 !
 ! A8    A(1,2,4)              117.7293         -DE/DX =    0.0                 !
 ! A9    A(3,2,4)              121.9027         -DE/DX =    0.0                 !
 ! A10   A(2,4,5)              118.0835         -DE/DX =    0.0                 !
 ! A11   A(2,4,22)             123.5224         -DE/DX =    0.0001              !
 ! A12   A(5,4,22)             117.8714         -DE/DX =    0.0                 !
 ! A13   A(4,5,6)              113.0109         -DE/DX =    0.0                 !
 ! A14   A(4,5,14)             108.7155         -DE/DX =    0.0                 !
 ! A15   A(4,5,15)             107.3192         -DE/DX =    0.0                 !
 ! A16   A(6,5,14)             104.6584         -DE/DX =    0.0004              !
[...]
 ! D13   D(2,4,5,15)            -4.8786         -DE/DX =   -0.0008              !
 ! D14   D(22,4,5,6)           -74.82           -DE/DX =    0.0007              !
 ! D15   D(22,4,5,14)           44.8201         -DE/DX =   -0.0006              !
 ! D16   D(22,4,5,15)          161.6315         -DE/DX =   -0.0006              !
 ! D17   D(2,4,22,23)           26.0129         -DE/DX =    0.0001              !
 ! D18   D(2,4,22,24)          142.5875         -DE/DX =    0.0001              !
 ! D19   D(2,4,22,25)          -96.2706         -DE/DX =    0.0001              !
 ! D20   D(5,4,22,23)         -139.8174         -DE/DX =   -0.0001              !
 ! D21   D(5,4,22,24)          -23.2428         -DE/DX =   -0.0001              !
 ! D22   D(5,4,22,25)           97.8991         -DE/DX =   -0.0001              !
 ! D23   D(4,5,6,7)            141.8486         -DE/DX =   -0.0021              !
 ! D24   D(4,5,6,8)            -33.5443         -DE/DX =   -0.0041              !
 ! D25   D(14,5,6,7)            19.2717         -DE/DX =   -0.0001              !
 ! D26   D(14,5,6,8)          -156.1212         -DE/DX =   -0.0021              !
 ! D27   D(15,5,6,7)           -95.646          -DE/DX =    0.0                 !
 ! D28   D(15,5,6,8)            88.9611         -DE/DX =   -0.002               !
 ! D29   D(5,6,8,9)            -30.7083         -DE/DX =    0.001               !
 ! D30   D(5,6,8,10)           173.8307         -DE/DX =    0.001               !
 ! D31   D(7,6,8,9)            154.1098         -DE/DX =   -0.0011              !
 ! D32   D(7,6,8,10)            -1.3512         -DE/DX =   -0.0011              !
 ! D33   D(6,8,9,16)             3.981          -DE/DX =    0.0                 !
 ! D34   D(6,8,9,17)           126.2783         -DE/DX =    0.0                 !
 ! D35   D(6,8,9,18)          -114.7862         -DE/DX =    0.0                 !
 ! D36   D(10,8,9,16)          159.9033         -DE/DX =    0.0                 !
 ! D37   D(10,8,9,17)          -77.7994         -DE/DX =    0.0                 !
 ! D38   D(10,8,9,18)           41.1361         -DE/DX =    0.0                 !
 ! D39   D(6,8,10,19)         -150.8664         -DE/DX =    0.0                 !
 ! D40   D(6,8,10,20)          -30.5793         -DE/DX =    0.0                 !
 ! D41   D(6,8,10,21)           89.248          -DE/DX =    0.0                 !
 ! D42   D(9,8,10,19)           51.4975         -DE/DX =    0.0                 !
 ! D43   D(9,8,10,20)          171.7846         -DE/DX =    0.0                 !
 ! D44   D(9,8,10,21)          -68.3881         -DE/DX =    0.0                 !
 ! D45   D(4,22,25,26)          56.7015         -DE/DX =    0.0                 !
 ! D46   D(4,22,25,27)         -61.5659         -DE/DX =    0.0                 !
 ! D47   D(4,22,25,28)         177.1944         -DE/DX =    0.0                 !
 ! D48   D(23,22,25,26)        -66.7736         -DE/DX =    0.0                 !
 ! D49   D(23,22,25,27)        174.9591         -DE/DX =    0.0                 !
 ! D50   D(23,22,25,28)         53.7194         -DE/DX =    0.0                 !
 ! D51   D(24,22,25,26)        177.7355         -DE/DX =    0.0                 !
 ! D52   D(24,22,25,27)         59.4681         -DE/DX =    0.0                 !
 ! D53   D(24,22,25,28)        -61.7716         -DE/DX =    0.0                 !
 ! D54   D(22,25,28,29)        177.6651         -DE/DX =    0.0                 !
 ! D55   D(26,25,28,29)        -62.3252         -DE/DX =    0.0                 !
 ! D56   D(27,25,28,29)         57.0189         -DE/DX =    0.0                 !
 ! D57   D(25,28,29,30)       -179.9521         -DE/DX =    0.0                 !
 ! D58   D(25,28,29,31)        -60.6641         -DE/DX =    0.0                 !
 ! D59   D(25,28,29,32)         60.8336         -DE/DX =    0.0                 !
 --------------------------------------------------------------------------------
 Iteration  1 RMS(Cart)=  0.04307799 RMS(Int)=  0.01111291
 Iteration  2 RMS(Cart)=  0.00107561 RMS(Int)=  0.01110167
 Iteration  3 RMS(Cart)=  0.00000407 RMS(Int)=  0.01110167
 Iteration  4 RMS(Cart)=  0.00000023 RMS(Int)=  0.01110167
 Iteration  1 RMS(Cart)=  0.02713822 RMS(Int)=  0.00681654
 Iteration  2 RMS(Cart)=  0.01800376 RMS(Int)=  0.00752947
 Iteration  3 RMS(Cart)=  0.01229935 RMS(Int)=  0.00859188
 Iteration  4 RMS(Cart)=  0.00853903 RMS(Int)=  0.00946536
 Iteration  5 RMS(Cart)=  0.00597805 RMS(Int)=  0.01011195
 Iteration  6 RMS(Cart)=  0.00420258 RMS(Int)=  0.01057686
 Iteration  7 RMS(Cart)=  0.00296037 RMS(Int)=  0.01090781
 Iteration  8 RMS(Cart)=  0.00208732 RMS(Int)=  0.01114245
 Iteration  9 RMS(Cart)=  0.00147237 RMS(Int)=  0.01130848
 Iteration 10 RMS(Cart)=  0.00103879 RMS(Int)=  0.01142584
 Iteration 11 RMS(Cart)=  0.00073295 RMS(Int)=  0.01150875
 Iteration 12 RMS(Cart)=  0.00051716 RMS(Int)=  0.01156730
 Iteration 13 RMS(Cart)=  0.00036490 RMS(Int)=  0.01160863
 Iteration 14 RMS(Cart)=  0.00025747 RMS(Int)=  0.01163780
 Iteration 15 RMS(Cart)=  0.00018167 RMS(Int)=  0.01165839
 Iteration 16 RMS(Cart)=  0.00012818 RMS(Int)=  0.01167292
 Iteration 17 RMS(Cart)=  0.00009044 RMS(Int)=  0.01168318
 Iteration 18 RMS(Cart)=  0.00006381 RMS(Int)=  0.01169041
 Iteration 19 RMS(Cart)=  0.00004502 RMS(Int)=  0.01169552
 Iteration 20 RMS(Cart)=  0.00003177 RMS(Int)=  0.01169912
 Iteration 21 RMS(Cart)=  0.00002241 RMS(Int)=  0.01170166
 Iteration 22 RMS(Cart)=  0.00001581 RMS(Int)=  0.01170346
 Iteration 23 RMS(Cart)=  0.00001116 RMS(Int)=  0.01170472
 Iteration 24 RMS(Cart)=  0.00000787 RMS(Int)=  0.01170561
 Iteration 25 RMS(Cart)=  0.00000555 RMS(Int)=  0.01170624
 Iteration 26 RMS(Cart)=  0.00000392 RMS(Int)=  0.01170669
 Iteration 27 RMS(Cart)=  0.00000277 RMS(Int)=  0.01170700
 Iteration 28 RMS(Cart)=  0.00000195 RMS(Int)=  0.01170722
 Iteration 29 RMS(Cart)=  0.00000138 RMS(Int)=  0.01170738
 Iteration 30 RMS(Cart)=  0.00000097 RMS(Int)=  0.01170749
 GradGradGradGradGradGradGradGradGradGradGradGradGradGradGradGradGradGrad

                          Input orientation:                          
 ---------------------------------------------------------------------
 Center     Atomic      Atomic             Coordinates (Angstroms)
 Number     Number       Type             X           Y           Z
 ---------------------------------------------------------------------
      1          6           0        1.073010    3.025382   -0.508310
      2          6           0       -0.130960    2.383418    0.164195
      3          8           0       -1.212238    2.967451    0.199728
      4          7           0        0.027376    1.127194    0.713769
      5          6           0       -1.037485    0.600817    1.567979
      6          6           0       -1.761592   -0.691454    1.142566
      7          8           0       -2.151077   -1.447415    2.027654
      8          7           0       -1.779495   -1.065415   -0.181522
      9          6           0       -1.810710   -0.117803   -1.294556
     10          6           0       -2.308081   -2.390420   -0.488227
     11          1           0        0.719255    3.923801   -1.012757
     12          1           0        1.554860    2.366490   -1.235798
     13          1           0        1.828030    3.314010    0.231064
     14          1           0       -0.718190    0.384903    2.591173
     15          1           0       -1.752686    1.428106    1.601245
     16          1           0       -1.747682    0.911843   -0.947768
     17          1           0       -0.995134   -0.311730   -2.003017
     18          1           0       -2.759792   -0.224463   -1.836650
     19          1           0       -1.821589   -2.767562   -1.394206
     20          1           0       -2.108976   -3.058837    0.348658
     21          1           0       -3.393401   -2.364920   -0.659805
     22          6           0        1.320983    0.439940    0.752363
     23          1           0        2.139621    1.162330    0.734998
     24          1           0        1.399380   -0.098944    1.701351
     25          6           0        1.529152   -0.553307   -0.394326
     26          1           0        1.414825   -0.042012   -1.365932
     27          1           0        0.772095   -1.350513   -0.354728
     28          8           0        2.834350   -1.074561   -0.249238
     29          6           0        3.149321   -2.053060   -1.218813
     30          1           0        4.169207   -2.389794   -1.019999
     31          1           0        2.470700   -2.917971   -1.161246
     32          1           0        3.102336   -1.645266   -2.240848
 ---------------------------------------------------------------------
                    Distance matrix (angstroms):
                    1          2          3          4          5
     1  C    0.000000
     2  C    1.521159   0.000000
     3  O    2.393122   1.229438   0.000000
     4  N    2.487959   1.380289   2.277592   0.000000
     5  C    3.826706   2.443371   2.739270   1.463105   0.000000
     6  C    4.957341   3.615385   3.818156   2.586843   1.541191
     7  O    6.068917   4.714725   4.869679   3.619470   2.376267
     8  N    4.997819   3.838181   4.090371   2.978903   2.527382
     9  C    4.337469   3.347480   3.479920   2.993652   3.050967
    10  C    6.384598   5.287252   5.511890   4.390076   3.845764
    11  H    1.089388   2.116805   2.472932   3.358660   4.559447
    12  H    1.093416   2.191406   3.174700   2.769454   4.207020
    13  H    1.095461   2.169820   3.060117   2.873590   4.166526
    14  H    4.448294   3.198300   3.554244   2.152095   1.093387
    15  H    3.871185   2.368064   2.150794   2.011662   1.094087
    16  H    3.551967   2.452709   2.414326   2.440883   2.632508
    17  H    4.200915   3.564748   3.956292   3.239901   3.685993
    18  H    5.197725   4.208940   4.090241   4.012471   3.903707
    19  H    6.536184   5.640871   5.983502   4.799099   4.553606
    20  H    6.919331   5.793506   6.094461   4.713827   4.003486
    21  H    7.001938   5.819726   5.824985   5.077725   4.394196
    22  C    2.887092   2.496235   3.620902   1.465343   2.500697
    23  H    2.480813   2.640533   3.844468   2.112644   3.332141
    24  H    3.840641   3.296500   4.298627   2.088332   2.538852
    25  C    3.609443   3.419397   4.501540   2.511433   3.430783
    26  H    3.203320   3.257829   4.290643   2.759930   3.877485
    27  H    4.388917   3.876471   4.784329   2.799165   3.283149
    28  O    4.469784   4.574015   5.737099   3.695161   4.593504
    29  C    5.532310   5.688171   6.800072   4.857512   5.686705
    30  H    6.258785   6.532787   7.690757   5.703500   6.538427
    31  H    6.140301   6.052284   7.074918   5.084178   5.669029
    32  H    5.379108   5.698134   6.771198   5.086421   6.057241
                    6          7          8          9         10
     6  C    0.000000
     7  O    1.227418   0.000000
     8  N    1.376001   2.272544   0.000000
     9  C    2.504207   3.594550   1.462117   0.000000
    10  C    2.417566   2.691387   1.459147   2.462180   0.000000
    11  H    5.665739   6.806825   5.641540   4.776473   7.022057
    12  H    5.099656   6.239388   4.899734   4.183567   6.173278
    13  H    5.455270   6.460046   5.688921   5.229273   7.082748
    14  H    2.084633   2.393347   3.304184   4.067580   4.439919
    15  H    2.168640   2.934137   3.065391   3.283118   4.388109
    16  H    2.634436   3.818634   2.120777   1.088305   3.380853
    17  H    3.259807   4.344225   2.121581   1.097583   2.887796
    18  H    3.176510   4.098657   2.099436   1.098179   2.591073
    19  H    3.278572   3.682454   2.090377   2.651654   1.095311
    20  H    2.521005   2.327548   2.088871   3.382128   1.089404
    21  H    2.951582   3.099616   2.126538   2.820878   1.099095
    22  C    3.306748   4.152551   3.570882   3.782652   4.766561
    23  H    4.338444   5.185733   4.600253   4.622007   5.822402
    24  H    3.264208   3.811902   3.818969   4.390956   4.877539
    25  C    3.634573   4.495498   3.354801   3.486368   4.255368
    26  H    4.099264   5.119300   3.557226   3.227215   4.488364
    27  H    3.015928   3.772276   2.573304   3.012264   3.253723
    28  O    4.817320   5.493426   4.614350   4.856404   5.313491
    29  C    5.616684   6.245043   5.132702   5.324740   5.516411
    30  H    6.537233   7.079707   6.151754   6.402869   6.499080
    31  H    5.308222   5.804518   4.738773   5.117536   4.854689
    32  H    6.001254   6.771824   5.330040   5.231313   5.735812
                   11         12         13         14         15
    11  H    0.000000
    12  H    1.781348   0.000000
    13  H    1.774350   1.767513   0.000000
    14  H    5.251510   4.872284   4.542359   0.000000
    15  H    4.378583   4.457493   4.272653   1.771557   0.000000
    16  H    3.893827   3.620185   4.466068   3.723120   2.600773
    17  H    4.675411   3.776766   5.109537   4.654952   4.073281
    18  H    5.476373   5.068558   6.151776   4.913765   3.945170
    19  H    7.167686   6.146868   7.276451   5.199881   5.155686
    20  H    7.655689   6.735604   7.491797   4.338491   4.672106
    21  H    7.522402   6.870466   7.765774   5.028632   4.710769
    22  C    3.951584   2.778323   2.964647   2.746357   3.338341
    23  H    3.563398   2.382432   2.231762   3.495263   3.996383
    24  H    4.900145   3.837887   3.740820   2.347338   3.503916
    25  C    4.591611   3.038742   3.928942   3.852790   4.321894
    26  H    4.041810   2.416077   3.739522   4.515605   4.582413
    27  H    5.315466   3.899374   4.818291   3.729738   4.233329
    28  O    5.480895   3.801477   4.528016   4.776872   5.543332
    29  C    6.455272   4.698405   5.714314   5.951242   6.640851
    30  H    7.194699   5.431722   6.291235   6.680280   7.517718
    31  H    7.063954   5.363753   6.417876   5.929471   6.660084
    32  H    6.180759   4.415766   5.685827   6.485864   6.912202
                   16         17         18         19         20
    16  H    0.000000
    17  H    1.782417   0.000000
    18  H    1.762291   1.774629   0.000000
    19  H    3.707127   2.661726   2.746513   0.000000
    20  H    4.192559   3.783862   3.637693   1.790253   0.000000
    21  H    3.678110   3.430960   2.523486   1.781028   1.774336
    22  C    3.539752   3.677163   4.878232   4.977105   4.916201
    23  H    4.243297   4.415458   5.704456   5.972331   6.001507
    24  H    4.235979   4.416029   5.461860   5.203713   4.785322
    25  C    3.631888   3.003043   4.536902   4.138858   4.479473
    26  H    3.329587   2.507295   4.205031   4.231287   4.945525
    27  H    3.437910   2.630404   3.992281   3.133008   3.422527
    28  O    5.042694   4.280490   5.876815   5.084777   5.360158
    29  C    5.731034   4.563300   6.216357   5.025058   5.578372
    30  H    6.776105   5.652883   7.305244   6.014347   6.460373
    31  H    5.701560   4.417360   5.921925   4.301236   4.824218
    32  H    5.633253   4.315570   6.045378   5.120682   5.988447
                   21         22         23         24         25
    21  H    0.000000
    22  C    5.664528   0.000000
    23  H    6.708302   1.091933   0.000000
    24  H    5.803487   1.094129   1.752885   0.000000
    25  C    5.252043   1.531264   2.142769   2.148290   0.000000
    26  H    5.386423   2.174456   2.527781   3.067850   1.103862
    27  H    4.298076   2.175465   3.061374   2.487442   1.100109
    28  O    6.373262   2.363725   2.540680   2.610702   1.412903
    29  C    6.573960   3.666524   3.895587   3.925330   2.356688
    30  H    7.571222   4.388739   4.451608   4.508400   3.276284
    31  H    5.911428   4.032283   4.511564   4.158015   2.658253
    32  H    6.724002   4.059632   4.202984   4.564220   2.660249
                   26         27         28         29         30
    26  H    0.000000
    27  H    1.774206   0.000000
    28  O    2.080436   2.083308   0.000000
    29  C    2.659780   2.625151   1.413060   0.000000
    30  H    3.635707   3.614285   2.026265   1.092284   0.000000
    31  H    3.070489   2.447989   2.088577   1.100868   1.784334
    32  H    2.486683   3.012366   2.089026   1.101390   1.784099
                   31         32
    31  H    0.000000
    32  H    1.784456   0.000000
 Stoichiometry    C9H18N2O3
 Framework group  C1[X(C9H18N2O3)]
 Deg. of freedom    90
 Full point group                 C1      NOp   1
 Largest Abelian subgroup         C1      NOp   1
 Largest concise Abelian subgroup C1      NOp   1
                         Standard orientation:                         
 ---------------------------------------------------------------------
 Center     Atomic      Atomic             Coordinates (Angstroms)
 Number     Number       Type             X           Y           Z
 ---------------------------------------------------------------------
      1          6           0        1.442788    2.874614   -0.579900
      2          6           0        0.081737    2.339763   -0.161093
      3          8           0       -0.945339    2.952349   -0.446347
      4          7           0        0.039610    1.145606    0.529859
      5          6           0       -1.224071    0.741381    1.146616
      6          6           0       -1.890656   -0.569496    0.685599
      7          8           0       -2.518581   -1.216297    1.518613
      8          7           0       -1.610648   -1.081942   -0.560343
      9          6           0       -1.326363   -0.257951   -1.734229
     10          6           0       -2.117694   -2.417812   -0.856091
     11          1           0        1.266327    3.723057   -1.240030
     12          1           0        2.050196    2.129510   -1.100893
     13          1           0        2.012936    3.220594    0.289160
     14          1           0       -1.170094    0.627542    2.232721
     15          1           0       -1.883186    1.585930    0.924514
     16          1           0       -1.295446    0.800804   -1.484253
     17          1           0       -0.376107   -0.547606   -2.200923
     18          1           0       -2.122528   -0.396944   -2.477734
     19          1           0       -1.448701   -2.902027   -1.575598
     20          1           0       -2.158885   -2.998142    0.064953
     21          1           0       -3.127768   -2.382363   -1.287951
     22          6           0        1.249573    0.432771    0.948292
     23          1           0        2.084496    1.127518    1.060314
     24          1           0        1.071169   -0.003694    1.935606
     25          6           0        1.674695   -0.682212   -0.011320
     26          1           0        1.822253   -0.274640   -1.026515
     27          1           0        0.890341   -1.450561   -0.079647
     28          8           0        2.878935   -1.218995    0.496583
     29          6           0        3.366037   -2.303225   -0.267563
     30          1           0        4.290223   -2.643407    0.204919
     31          1           0        2.649979   -3.139006   -0.292907
     32          1           0        3.585652   -2.005669   -1.305007
 ---------------------------------------------------------------------
 Rotational constants (GHZ):      0.6410773      0.5690730      0.3771283
 Standard basis: 6-31G(d,p) (6D, 7F)
 There are   300 symmetry adapted basis functions of A   symmetry.
 Integral buffers will be    131072 words long.
 Raffenetti 2 integral format.
 Two-electron integral symmetry is turned on.
   300 basis functions,   518 primitive gaussians,   300 cartesian basis functions
    55 alpha electrons       55 beta electrons
       nuclear repulsion energy       992.6347103408 Hartrees.
 NAtoms=   32 NActive=   32 NUniq=   32 SFac= 1.00D+00 NAtFMM=   60 NAOKFM=F Big=F
 One-electron integrals computed using PRISM.
 NBasis=   300 RedAO= T  NBF=   300
 NBsUse=   300 1.00D-06 NBFU=   300
