 Entering Gaussian System, Link 0=/data/opt/apps/g09-C01/g09
 Initial command:
 /data/opt/apps/g09-C01/l1.exe /tmp/g09-tuu61186-1150915c21e64fea8x/Gau-1151054.inp -scrdir=/tmp/g09-tuu61186-1150915c21e64fea8x/
 Entering Link 1 = /data/opt/apps/g09-C01/l1.exe PID=   1151063.
  
 Copyright (c) 1988,1990,1992,1993,1995,1998,2003,2009,2011,
            Gaussian, Inc.  All Rights Reserved.
  
 This is part of the Gaussian(R) 09 program.  It is based on
 the Gaussian(R) 03 system (copyright 2003, Gaussian, Inc.),
 the Gaussian(R) 98 system (copyright 1998, Gaussian, Inc.),
 the Gaussian(R) 94 system (copyright 1995, Gaussian, Inc.),
 the Gaussian 92(TM) system (copyright 1992, Gaussian, Inc.),
 the Gaussian 90(TM) system (copyright 1990, Gaussian, Inc.),
 the Gaussian 88(TM) system (copyright 1988, Gaussian, Inc.),
 the Gaussian 86(TM) system (copyright 1986, Carnegie Mellon
 University), and the Gaussian 82(TM) system (copyright 1983,
 Carnegie Mellon University). Gaussian is a federally registered
 trademark of Gaussian, Inc.
  
 This software contains proprietary and confidential information,
 including trade secrets, belonging to Gaussian, Inc.
  
 This software is provided under written license and may be
 used, copied, transmitted, or stored only in accord with that
 written license.
  
 The following legend is applicable only to US Government
 contracts under FAR:
  
                    RESTRICTED RIGHTS LEGEND
  
 Use, reproduction and disclosure by the US Government is
 subject to restrictions as set forth in subparagraphs (a)
 and (c) of the Commercial Computer Software - Restricted
 Rights clause in FAR 52.227-19.
  
 Gaussian, Inc.
 340 Quinnipiac St., Bldg. 40, Wallingford CT 06492
  
  
 ---------------------------------------------------------------
 Warning -- This program may not be used in any manner that
 competes with the business of Gaussian, Inc. or will provide
 assistance to any competitor of Gaussian, Inc.  The licensee
 of this program is prohibited from giving any competitor of
 Gaussian, Inc. access to this program.  By using this program,
 the user acknowledges that Gaussian, Inc. is engaged in the
 business of creating and licensing software in the field of
 computational chemistry and represents and warrants to the
 licensee that it is not a competitor of Gaussian, Inc. and that
 it will not use this program in any manner prohibited above.
 ---------------------------------------------------------------
  

 Cite this work as:
 Gaussian 09, Revision C.01,
 M. J. Frisch, G. W. Trucks, H. B. Schlegel, G. E. Scuseria, 
 M. A. Robb, J. R. Cheeseman, G. Scalmani, V. Barone, B. Mennucci, 
 G. A. Petersson, H. Nakatsuji, M. Caricato, X. Li, H. P. Hratchian, 
 A. F. Izmaylov, J. Bloino, G. Zheng, J. L. Sonnenberg, M. Hada, 
 M. Ehara, K. Toyota, R. Fukuda, J. Hasegawa, M. Ishida, T. Nakajima, 
 Y. Honda, O. Kitao, H. Nakai, T. Vreven, J. A. Montgomery, Jr., 
 J. E. Peralta, F. Ogliaro, M. Bearpark, J. J. Heyd, E. Brothers, 
 K. N. Kudin, V. N. Staroverov, T. Keith, R. Kobayashi, J. Normand, 
 K. Raghavachari, A. Rendell, J. C. Burant, S. S. Iyengar, J. Tomasi, 
 M. Cossi, N. Rega, J. M. Millam, M. Klene, J. E. Knox, J. B. Cross, 
 V. Bakken, C. Adamo, J. Jaramillo, R. Gomperts, R. E. Stratmann, 
 O. Yazyev, A. J. Austin, R. Cammi, C. Pomelli, J. W. Ochterski, 
 R. L. Martin, K. Morokuma, V. G. Zakrzewski, G. A. Voth, 
 P. Salvador, J. J. Dannenberg, S. Dapprich, A. D. Daniels, 
 O. Farkas, J. B. Foresman, J. V. Ortiz, J. Cioslowski, 
 and D. J. Fox, Gaussian, Inc., Wallingford CT, 2010.
 
 ******************************************
 Gaussian 09:  EM64L-G09RevC.01 23-Sep-2011
                24-Apr-2026 
 ******************************************
 %nprocshared=8
 Will use up to    8 processors via shared memory.
 %mem=14GB
 -----------------------------------
 # opt=modredundant b3lyp/6-31g(d,p)
 -----------------------------------
 1/14=-1,18=120,19=15,26=3,38=1/1,3;
 2/9=110,12=2,17=6,18=5,40=1/2;
 3/5=1,6=6,7=101,11=2,16=1,25=1,30=1,71=1,74=-5/1,2,3;
 4//1;
 5/5=2,38=5/2;
 6/7=2,8=2,9=2,10=2,28=1/1;
 7//1,2,3,16;
 1/14=-1,18=20,19=15/3(2);
 2/9=110/2;
 99//99;
 2/9=110/2;
 3/5=1,6=6,7=101,11=2,16=1,25=1,30=1,71=1,74=-5/1,2,3;
 4/5=5,16=3/1;
 5/5=2,38=5/2;
 7//1,2,3,16;
 1/14=-1,18=20,19=15/3(-5);
 2/9=110/2;
 6/7=2,8=2,9=2,10=2,19=2,28=1/1;
 99/9=1/99;
 ---------------
 QM dihedral opt
 ---------------
 Charge =  0 Multiplicity = 1
 Symbolic Z-Matrix:
 C                     0.63043   2.7597   -0.98964 
 C                    -0.29412   1.82505  -0.22153 
 O                    -1.50362   2.0161   -0.19415 
 N                     0.26483   0.73043   0.41129 
 C                    -0.61725  -0.05461   1.28788 
 C                    -2.00902  -0.512     0.80335 
 O                    -2.91868  -0.44636   1.62312 
 N                    -2.18006  -1.09266  -0.42795 
 C                    -1.17293  -1.21337  -1.46439 
 C                    -3.53578  -1.42922  -0.84303 
 H                     0.00133   3.38071  -1.62679 
 H                     1.36063   2.2272   -1.6056 
 H                     1.18039   3.4167   -0.30693 
 H                    -0.06309  -0.95424   1.57866 
 H                    -0.84337   0.50457   2.20073 
 H                    -0.1716   -1.15952  -1.04613 
 H                    -1.28546  -2.18257  -1.96403 
 H                    -1.27366  -0.425    -2.22384 
 H                    -3.57775  -2.46849  -1.19056 
 H                    -4.19871  -1.30046   0.00989 
 H                    -3.86362  -0.77521  -1.66174 
 C                     1.69807   0.62053   0.69532 
 H                     2.20669   1.54934   0.43758 
 H                     1.84665   0.4745    1.77185 
 C                     2.37828  -0.52704  -0.05317 
 H                     2.28836  -0.37448  -1.14251 
 H                     1.89047  -1.48885   0.18222 
 O                     3.73021  -0.53968   0.34988 
 C                     4.4821   -1.56965  -0.2607 
 H                     5.50308  -1.4931    0.1192 
 H                     4.08365  -2.56587  -0.01412 
 H                     4.50065  -1.46644  -1.35664 
 
 The following ModRedundant input section has been read:
 D       2       4       5       6 F                                           
 D       4       5       6       8 S  36 10.000                                

 GradGradGradGradGradGradGradGradGradGradGradGradGradGradGradGradGradGrad
 Berny optimization.
 Initialization pass.
                           ----------------------------
                           !    Initial Parameters    !
                           ! (Angstroms and Degrees)  !
 --------------------------                            --------------------------
 ! Name  Definition              Value          Derivative Info.                !
 --------------------------------------------------------------------------------
 ! R1    R(1,2)                  1.5226         estimate D2E/DX2                !
 ! R2    R(1,11)                 1.0897         estimate D2E/DX2                !
 ! R3    R(1,12)                 1.0937         estimate D2E/DX2                !
 ! R4    R(1,13)                 1.0955         estimate D2E/DX2                !
 ! R5    R(2,3)                  1.2248         estimate D2E/DX2                !
 ! R6    R(2,4)                  1.3824         estimate D2E/DX2                !
 ! R7    R(4,5)                  1.4706         estimate D2E/DX2                !
 ! R8    R(4,22)                 1.4652         estimate D2E/DX2                !
 ! R9    R(5,6)                  1.543          estimate D2E/DX2                !
 ! R10   R(5,14)                 1.0959         estimate D2E/DX2                !
 ! R11   R(5,15)                 1.0941         estimate D2E/DX2                !
 ! R12   R(6,7)                  1.2263         estimate D2E/DX2                !
 ! R13   R(6,8)                  1.372          estimate D2E/DX2                !
 ! R14   R(8,9)                  1.4502         estimate D2E/DX2                !
 ! R15   R(8,10)                 1.4572         estimate D2E/DX2                !
 ! R16   R(9,16)                 1.0865         estimate D2E/DX2                !
 ! R17   R(9,17)                 1.0962         estimate D2E/DX2                !
 ! R18   R(9,18)                 1.0993         estimate D2E/DX2                !
 ! R19   R(10,19)                1.0966         estimate D2E/DX2                !
 ! R20   R(10,20)                1.0879         estimate D2E/DX2                !
 ! R21   R(10,21)                1.098          estimate D2E/DX2                !
 ! R22   R(22,23)                1.0899         estimate D2E/DX2                !
 ! R23   R(22,24)                1.0965         estimate D2E/DX2                !
 ! R24   R(22,25)                1.5297         estimate D2E/DX2                !
 ! R25   R(25,26)                1.1036         estimate D2E/DX2                !
 ! R26   R(25,27)                1.1038         estimate D2E/DX2                !
 ! R27   R(25,28)                1.4108         estimate D2E/DX2                !
 ! R28   R(28,29)                1.4139         estimate D2E/DX2                !
 ! R29   R(29,30)                1.0921         estimate D2E/DX2                !
 ! R30   R(29,31)                1.1009         estimate D2E/DX2                !
 ! R31   R(29,32)                1.1009         estimate D2E/DX2                !
 ! A1    A(2,1,11)             107.1126         estimate D2E/DX2                !
 ! A2    A(2,1,12)             112.9954         estimate D2E/DX2                !
 ! A3    A(2,1,13)             111.0131         estimate D2E/DX2                !
 ! A4    A(11,1,12)            109.4884         estimate D2E/DX2                !
 ! A5    A(11,1,13)            108.2049         estimate D2E/DX2                !
 ! A6    A(12,1,13)            107.9259         estimate D2E/DX2                !
 ! A7    A(1,2,3)              121.0075         estimate D2E/DX2                !
 ! A8    A(1,2,4)              118.1292         estimate D2E/DX2                !
 ! A9    A(3,2,4)              120.8346         estimate D2E/DX2                !
 ! A10   A(2,4,5)              116.9375         estimate D2E/DX2                !
 ! A11   A(2,4,22)             122.931          estimate D2E/DX2                !
 ! A12   A(5,4,22)             115.5384         estimate D2E/DX2                !
 ! A13   A(4,5,6)              120.8014         estimate D2E/DX2                !
 ! A14   A(4,5,14)             107.042          estimate D2E/DX2                !
 ! A15   A(4,5,15)             110.3919         estimate D2E/DX2                !
 ! A16   A(6,5,14)             107.2225         estimate D2E/DX2                !
 ! A17   A(6,5,15)             103.1245         estimate D2E/DX2                !
 ! A18   A(14,5,15)            107.618          estimate D2E/DX2                !
 ! A19   A(5,6,7)              116.3144         estimate D2E/DX2                !
 ! A20   A(5,6,8)              121.3104         estimate D2E/DX2                !
 ! A21   A(7,6,8)              122.0119         estimate D2E/DX2                !
 ! A22   A(6,8,9)              126.159          estimate D2E/DX2                !
 ! A23   A(6,8,10)             117.9913         estimate D2E/DX2                !
 ! A24   A(9,8,10)             115.0428         estimate D2E/DX2                !
 ! A25   A(8,9,16)             111.1481         estimate D2E/DX2                !
 ! A26   A(8,9,17)             109.1506         estimate D2E/DX2                !
 ! A27   A(8,9,18)             111.7409         estimate D2E/DX2                !
 ! A28   A(16,9,17)            108.2941         estimate D2E/DX2                !
 ! A29   A(16,9,18)            108.3519         estimate D2E/DX2                !
 ! A30   A(17,9,18)            108.0461         estimate D2E/DX2                !
 ! A31   A(8,10,19)            110.1669         estimate D2E/DX2                !
 ! A32   A(8,10,20)            108.4371         estimate D2E/DX2                !
 ! A33   A(8,10,21)            110.6476         estimate D2E/DX2                !
 ! A34   A(19,10,20)           109.7125         estimate D2E/DX2                !
 ! A35   A(19,10,21)           108.4675         estimate D2E/DX2                !
 ! A36   A(20,10,21)           109.3989         estimate D2E/DX2                !
 ! A37   A(4,22,23)            110.2875         estimate D2E/DX2                !
 ! A38   A(4,22,24)            109.4417         estimate D2E/DX2                !
 ! A39   A(4,22,25)            113.3528         estimate D2E/DX2                !
 ! A40   A(23,22,24)           106.4056         estimate D2E/DX2                !
 ! A41   A(23,22,25)           108.4274         estimate D2E/DX2                !
 ! A42   A(24,22,25)           108.6775         estimate D2E/DX2                !
 ! A43   A(22,25,26)           110.0627         estimate D2E/DX2                !
 ! A44   A(22,25,27)           110.6601         estimate D2E/DX2                !
 ! A45   A(22,25,28)           107.0409         estimate D2E/DX2                !
 ! A46   A(26,25,27)           107.1535         estimate D2E/DX2                !
 ! A47   A(26,25,28)           111.18           estimate D2E/DX2                !
 ! A48   A(27,25,28)           110.7788         estimate D2E/DX2                !
 ! A49   A(25,28,29)           113.1262         estimate D2E/DX2                !
 ! A50   A(28,29,30)           107.2106         estimate D2E/DX2                !
 ! A51   A(28,29,31)           111.7162         estimate D2E/DX2                !
 ! A52   A(28,29,32)           111.7503         estimate D2E/DX2                !
 ! A53   A(30,29,31)           108.8981         estimate D2E/DX2                !
 ! A54   A(30,29,32)           108.9034         estimate D2E/DX2                !
 ! A55   A(31,29,32)           108.2937         estimate D2E/DX2                !
 ! D1    D(11,1,2,3)           -13.196          estimate D2E/DX2                !
 ! D2    D(11,1,2,4)           164.8708         estimate D2E/DX2                !
 ! D3    D(12,1,2,3)          -133.8506         estimate D2E/DX2                !
 ! D4    D(12,1,2,4)            44.2161         estimate D2E/DX2                !
 ! D5    D(13,1,2,3)           104.7372         estimate D2E/DX2                !
 ! D6    D(13,1,2,4)           -77.1961         estimate D2E/DX2                !
 ! D7    D(1,2,4,5)            172.2357         estimate D2E/DX2                !
 ! D8    D(1,2,4,22)            17.3738         estimate D2E/DX2                !
 ! D9    D(3,2,4,5)             -9.694          estimate D2E/DX2                !
 ! D10   D(3,2,4,22)          -164.5559         estimate D2E/DX2                !
 ! D11   D(2,4,5,6)             48.6699         Frozen                          !
 ! D12   D(2,4,5,14)           171.5768         estimate D2E/DX2                !
 ! D13   D(2,4,5,15)           -71.5714         estimate D2E/DX2                !
 ! D14   D(22,4,5,6)          -154.6057         estimate D2E/DX2                !
 ! D15   D(22,4,5,14)          -31.6988         estimate D2E/DX2                !
 ! D16   D(22,4,5,15)           85.153          estimate D2E/DX2                !
 ! D17   D(2,4,22,23)            6.0668         estimate D2E/DX2                !
 ! D18   D(2,4,22,24)          122.7979         estimate D2E/DX2                !
 ! D19   D(2,4,22,25)         -115.7149         estimate D2E/DX2                !
 ! D20   D(5,4,22,23)         -149.1164         estimate D2E/DX2                !
 ! D21   D(5,4,22,24)          -32.3853         estimate D2E/DX2                !
 ! D22   D(5,4,22,25)           89.1019         estimate D2E/DX2                !
 ! D23   D(4,5,6,7)           -139.77           estimate D2E/DX2                !
 ! D24   D(4,5,6,8)             47.0167         Scan                            !
 ! D25   D(14,5,6,7)            97.4091         estimate D2E/DX2                !
 ! D26   D(14,5,6,8)           -75.8041         estimate D2E/DX2                !
 ! D27   D(15,5,6,7)           -16.0223         estimate D2E/DX2                !
 ! D28   D(15,5,6,8)           170.7644         estimate D2E/DX2                !
 ! D29   D(5,6,8,9)             -7.4834         estimate D2E/DX2                !
 ! D30   D(5,6,8,10)          -176.6454         estimate D2E/DX2                !
 ! D31   D(7,6,8,9)            179.693          estimate D2E/DX2                !
 ! D32   D(7,6,8,10)            10.531          estimate D2E/DX2                !
 ! D33   D(6,8,9,16)            22.7947         estimate D2E/DX2                !
 ! D34   D(6,8,9,17)           142.1756         estimate D2E/DX2                !
 ! D35   D(6,8,9,18)           -98.3834         estimate D2E/DX2                !
 ! D36   D(10,8,9,16)         -167.7652         estimate D2E/DX2                !
 ! D37   D(10,8,9,17)          -48.3843         estimate D2E/DX2                !
 ! D38   D(10,8,9,18)           71.0566         estimate D2E/DX2                !
 ! D39   D(6,8,10,19)         -129.6074         estimate D2E/DX2                !
 ! D40   D(6,8,10,20)           -9.5272         estimate D2E/DX2                !
 ! D41   D(6,8,10,21)          110.4576         estimate D2E/DX2                !
 ! D42   D(9,8,10,19)           60.0389         estimate D2E/DX2                !
 ! D43   D(9,8,10,20)         -179.8808         estimate D2E/DX2                !
 ! D44   D(9,8,10,21)          -59.896          estimate D2E/DX2                !
 ! D45   D(4,22,25,26)          61.0541         estimate D2E/DX2                !
 ! D46   D(4,22,25,27)         -57.1931         estimate D2E/DX2                !
 ! D47   D(4,22,25,28)        -177.9989         estimate D2E/DX2                !
 ! D48   D(23,22,25,26)        -61.7615         estimate D2E/DX2                !
 ! D49   D(23,22,25,27)        179.9913         estimate D2E/DX2                !
 ! D50   D(23,22,25,28)         59.1855         estimate D2E/DX2                !
 ! D51   D(24,22,25,26)       -177.0313         estimate D2E/DX2                !
 ! D52   D(24,22,25,27)         64.7215         estimate D2E/DX2                !
 ! D53   D(24,22,25,28)        -56.0843         estimate D2E/DX2                !
 ! D54   D(22,25,28,29)        179.4084         estimate D2E/DX2                !
 ! D55   D(26,25,28,29)        -60.3559         estimate D2E/DX2                !
 ! D56   D(27,25,28,29)         58.6779         estimate D2E/DX2                !
 ! D57   D(25,28,29,30)       -179.7822         estimate D2E/DX2                !
 ! D58   D(25,28,29,31)        -60.5508         estimate D2E/DX2                !
 ! D59   D(25,28,29,32)         60.9602         estimate D2E/DX2                !
 --------------------------------------------------------------------------------
 Trust Radius=3.00D-01 FncErr=1.00D-07 GrdErr=1.00D-06
 Number of optimizations in scan=  37
 Number of steps in this run=    155 maximum allowed number of steps=    192.
 GradGradGradGradGradGradGradGradGradGradGradGradGradGradGradGradGradGrad

                          Input orientation:                          
 ---------------------------------------------------------------------
 Center     Atomic      Atomic             Coordinates (Angstroms)
 Number     Number       Type             X           Y           Z
 ---------------------------------------------------------------------
      1          6           0        0.630426    2.759695   -0.989637
      2          6           0       -0.294123    1.825050   -0.221528
      3          8           0       -1.503616    2.016103   -0.194153
      4          7           0        0.264832    0.730434    0.411294
      5          6           0       -0.617251   -0.054613    1.287875
      6          6           0       -2.009024   -0.511997    0.803352
      7          8           0       -2.918681   -0.446363    1.623118
      8          7           0       -2.180058   -1.092662   -0.427945
      9          6           0       -1.172929   -1.213374   -1.464389
     10          6           0       -3.535776   -1.429222   -0.843028
     11          1           0        0.001333    3.380713   -1.626787
     12          1           0        1.360630    2.227204   -1.605601
     13          1           0        1.180394    3.416701   -0.306928
     14          1           0       -0.063093   -0.954240    1.578660
     15          1           0       -0.843367    0.504569    2.200730
     16          1           0       -0.171596   -1.159520   -1.046131
     17          1           0       -1.285462   -2.182570   -1.964031
     18          1           0       -1.273663   -0.425002   -2.223837
     19          1           0       -3.577754   -2.468486   -1.190561
     20          1           0       -4.198706   -1.300456    0.009885
     21          1           0       -3.863623   -0.775206   -1.661735
     22          6           0        1.698066    0.620530    0.695321
     23          1           0        2.206694    1.549336    0.437583
     24          1           0        1.846645    0.474503    1.771845
     25          6           0        2.378277   -0.527040   -0.053171
     26          1           0        2.288364   -0.374481   -1.142510
     27          1           0        1.890465   -1.488846    0.182223
     28          8           0        3.730214   -0.539676    0.349882
     29          6           0        4.482100   -1.569650   -0.260704
     30          1           0        5.503081   -1.493096    0.119198
     31          1           0        4.083653   -2.565868   -0.014124
     32          1           0        4.500648   -1.466441   -1.356643
 ---------------------------------------------------------------------
                    Distance matrix (angstroms):
                    1          2          3          4          5
     1  C    0.000000
     2  C    1.522611   0.000000
     3  O    2.395800   1.224795   0.000000
     4  N    2.492823   1.382418   2.268682   0.000000
     5  C    3.829372   2.432250   2.696278   1.470634   0.000000
     6  C    4.570063   3.074582   2.764370   2.620642   1.543047
     7  O    5.449904   3.930692   3.371739   3.603904   2.358482
     8  N    4.801559   3.480288   3.190087   3.163145   2.542430
     9  C    4.388936   3.398385   3.486026   3.060022   3.037509
    10  C    5.909802   4.635177   4.052281   4.547753   3.866275
    11  H    1.089670   2.117105   2.485854   3.353682   4.547457
    12  H    1.093689   2.194446   3.200102   2.740248   4.182213
    13  H    1.095542   2.171370   3.029571   2.927478   4.221960
    14  H    4.568417   3.319413   3.747120   2.075670   1.095890
    15  H    4.175656   2.812947   2.907942   2.116885   1.094129
    16  H    4.000835   3.098813   3.547496   2.426208   2.620498
    17  H    5.389439   4.481081   4.561679   4.065854   3.943298
    18  H    3.910384   3.167250   3.183000   3.262808   3.591683
    19  H    6.714389   5.491421   5.040478   5.250190   4.553461
    20  H    6.387831   5.006806   4.278400   4.920245   4.001525
    21  H    5.757058   4.645090   3.938888   4.858862   4.445040
    22  C    2.924887   2.502059   3.604103   1.465234   2.483472
    23  H    2.446742   2.600871   3.792540   2.107634   3.357129
    24  H    3.785112   3.221863   4.179226   2.102078   2.566120
    25  C    3.838565   3.564042   4.642903   2.502722   3.315838
    26  H    3.548970   3.515023   4.581854   2.780256   3.801537
    27  H    4.583782   3.989655   4.893476   2.760500   3.093239
    28  O    4.721106   4.702523   5.849868   3.691317   4.473876
    29  C    5.840374   5.859849   6.977883   4.850497   5.540471
    30  H    6.561899   6.688330   7.842606   5.698128   6.394803
    31  H    6.421684   6.203878   7.228032   5.062606   5.486356
    32  H    5.742259   5.925557   7.037804   5.088615   5.931241
                    6          7          8          9         10
     6  C    0.000000
     7  O    1.226295   0.000000
     8  N    1.372048   2.273791   0.000000
     9  C    2.516671   3.628864   1.450206   0.000000
    10  C    2.425457   2.725563   1.457236   2.452698   0.000000
    11  H    5.010020   5.808173   5.119255   4.744565   6.021702
    12  H    4.965969   5.990416   4.994482   4.275095   6.158389
    13  H    5.180712   5.954054   5.625090   5.321225   6.783261
    14  H    2.140871   2.900741   2.920131   3.249467   4.260247
    15  H    2.084425   2.354747   3.353777   4.061162   4.500342
    16  H    2.686264   3.896147   2.102509   1.086512   3.381079
    17  H    3.312516   4.306908   2.085129   1.096196   2.624518
    18  H    3.116440   4.183970   2.119564   1.099290   2.834122
    19  H    3.203818   3.527059   2.104288   2.726439   1.096636
    20  H    2.458854   2.229453   2.076009   3.366956   1.087896
    21  H    3.096041   3.433848   2.111257   2.733271   1.097953
    22  C    3.877732   4.828397   4.385955   4.033629   5.827616
    23  H    4.706927   5.626524   5.193543   4.761504   6.594523
    24  H    4.096016   4.855764   4.848651   4.737084   6.279505
    25  C    4.470153   5.556457   4.608557   3.882480   6.034387
    26  H    4.719410   5.896370   4.581832   3.576017   5.926447
    27  H    4.067684   5.127459   4.135024   3.488782   5.522571
    28  O    5.757192   6.770350   5.986829   5.271267   7.416801
    29  C    6.662247   7.718945   6.681305   5.792680   8.040221
    30  H    7.606730   8.618788   7.712998   6.866957   9.090154
    31  H    6.481309   7.497036   6.447919   5.618199   7.748209
    32  H    6.924765   8.060147   6.755296   5.680240   8.052906
                   11         12         13         14         15
    11  H    0.000000
    12  H    1.782897   0.000000
    13  H    1.770172   1.770294   0.000000
    14  H    5.391740   4.721027   4.920043   0.000000
    15  H    4.861647   4.723688   4.343325   1.767462   0.000000
    16  H    4.580478   3.759072   4.828674   2.635041   3.709794
    17  H    5.720113   5.155229   6.338633   3.943810   4.976083
    18  H    4.057777   3.788920   4.945262   4.025488   4.541591
    19  H    6.871192   6.827108   7.619462   4.723809   5.274162
    20  H    6.498643   6.779410   7.161470   4.436690   4.395022
    21  H    5.675453   6.025814   6.696991   4.997624   5.067387
    22  C    3.986188   2.826572   3.015138   2.522275   2.956110
    23  H    3.532589   2.312992   2.257131   3.566775   3.674656
    24  H    4.837554   3.836054   3.663566   2.392849   2.724153
    25  C    4.837010   3.321371   4.129456   2.967433   4.064883
    26  H    4.423406   2.800698   4.037184   3.642834   4.664517
    27  H    5.527562   4.157652   4.980749   2.460128   3.939786
    28  O    5.760315   4.134546   4.752463   4.008857   5.043186
    29  C    6.815391   5.095922   5.980560   4.941737   6.222671
    30  H    7.554582   5.828848   6.555403   5.779506   6.971430
    31  H    7.391065   5.737699   6.656259   4.725443   6.213589
    32  H    6.619042   4.854349   5.997588   5.450329   6.715525
                   16         17         18         19         20
    16  H    0.000000
    17  H    1.769144   0.000000
    18  H    1.772304   1.776706   0.000000
    19  H    3.651871   2.436105   3.248434   0.000000
    20  H    4.165651   3.627873   3.783095   1.786322   0.000000
    21  H    3.762676   2.952790   2.673293   1.780709   1.783951
    22  C    3.113980   4.881697   4.294857   6.397878   6.239546
    23  H    3.898150   5.647125   4.805627   7.228664   7.023773
    24  H    3.832012   5.552198   5.148874   6.845520   6.542267
    25  C    2.808532   4.451421   4.249573   6.366881   6.622602
    26  H    2.583985   4.088559   3.722883   6.228845   6.653384
    27  H    2.422685   3.895404   4.114923   5.722381   6.094522
    28  O    4.190129   5.762838   5.628140   7.713603   7.972588
    29  C    4.737298   6.044979   6.188127   8.162952   8.689193
    30  H    5.802691   7.134391   7.249476   9.226506   9.704315
    31  H    4.598913   5.725072   6.177942   7.751816   8.378503
    32  H    4.692599   5.861811   5.931213   8.142006   8.807594
                   21         22         23         24         25
    21  H    0.000000
    22  C    6.199692   0.000000
    23  H    6.830767   1.089868   0.000000
    24  H    6.779263   1.096496   1.750759   0.000000
    25  C    6.450611   1.529655   2.140471   2.148582   0.000000
    26  H    6.186851   2.171663   2.490870   3.067467   1.103639
    27  H    6.084323   2.179393   3.065250   2.526570   1.103830
    28  O    7.859290   2.365382   2.587040   2.568729   1.410796
    29  C    8.499713   3.669021   3.923411   3.905821   2.357154
    30  H    9.561497   4.390612   4.497102   4.469028   3.275267
    31  H    8.311455   4.043200   4.545538   4.175853   2.658317
    32  H    8.398328   4.052218   4.192420   4.538550   2.661949
                   26         27         28         29         30
    26  H    0.000000
    27  H    1.776246   0.000000
    28  O    2.081695   2.076947   0.000000
    29  C    2.649243   2.630453   1.413858   0.000000
    30  H    3.630098   3.613168   2.026150   1.092057   0.000000
    31  H    3.049343   2.451245   2.088749   1.100914   1.784206
    32  H    2.476374   3.030126   2.089184   1.100944   1.784290
                   31         32
    31  H    0.000000
    32  H    1.784652   0.000000
 Stoichiometry    C9H18N2O3
 Framework group  C1[X(C9H18N2O3)]
 Deg. of freedom    90
 Full point group                 C1      NOp   1
 Largest Abelian subgroup         C1      NOp   1
 Largest concise Abelian subgroup C1      NOp   1
                         Standard orientation:                         
 ---------------------------------------------------------------------
 Center     Atomic      Atomic             Coordinates (Angstroms)
 Number     Number       Type             X           Y           Z
 ---------------------------------------------------------------------
      1          6           0        0.630426    2.759695   -0.989637
      2          6           0       -0.294123    1.825050   -0.221528
      3          8           0       -1.503616    2.016103   -0.194153
      4          7           0        0.264832    0.730434    0.411294
      5          6           0       -0.617251   -0.054613    1.287875
      6          6           0       -2.009024   -0.511997    0.803352
      7          8           0       -2.918681   -0.446363    1.623118
      8          7           0       -2.180058   -1.092662   -0.427945
      9          6           0       -1.172929   -1.213374   -1.464389
     10          6           0       -3.535776   -1.429222   -0.843028
     11          1           0        0.001333    3.380713   -1.626787
     12          1           0        1.360630    2.227204   -1.605601
     13          1           0        1.180394    3.416701   -0.306928
     14          1           0       -0.063093   -0.954240    1.578660
     15          1           0       -0.843367    0.504569    2.200730
     16          1           0       -0.171596   -1.159520   -1.046131
     17          1           0       -1.285462   -2.182570   -1.964031
     18          1           0       -1.273663   -0.425002   -2.223837
     19          1           0       -3.577754   -2.468486   -1.190561
     20          1           0       -4.198706   -1.300456    0.009885
     21          1           0       -3.863623   -0.775206   -1.661735
     22          6           0        1.698066    0.620530    0.695321
     23          1           0        2.206694    1.549336    0.437583
     24          1           0        1.846645    0.474503    1.771845
     25          6           0        2.378277   -0.527040   -0.053171
     26          1           0        2.288364   -0.374481   -1.142510
     27          1           0        1.890465   -1.488846    0.182223
     28          8           0        3.730214   -0.539676    0.349882
     29          6           0        4.482100   -1.569650   -0.260704
     30          1           0        5.503081   -1.493096    0.119198
     31          1           0        4.083653   -2.565868   -0.014124
     32          1           0        4.500648   -1.466441   -1.356643
 ---------------------------------------------------------------------
 Rotational constants (GHZ):      0.9443416      0.3792309      0.3280481
 Standard basis: 6-31G(d,p) (6D, 7F)
 There are   300 symmetry adapted basis functions of A   symmetry.
 Integral buffers will be    131072 words long.
 Raffenetti 2 integral format.
 Two-electron integral symmetry is turned on.
   300 basis functions,   518 primitive gaussians,   300 cartesian basis functions
    55 alpha electrons       55 beta electrons
       nuclear repulsion energy       977.6346452469 Hartrees.
 NAtoms=   32 NActive=   32 NUniq=   32 SFac= 1.00D+00 NAtFMM=   60 NAOKFM=F Big=F
 One-electron integrals computed using PRISM.
 NBasis=   300 RedAO= T  NBF=   300
 NBsUse=   300 1.00D-06 NBFU=   300
 Harris functional with IExCor=  402 diagonalized for initial guess.
 ExpMin= 1.61D-01 ExpMax= 5.48D+03 ExpMxC= 8.25D+02 IAcc=1 IRadAn=         1 AccDes= 0.00D+00
 HarFok:  IExCor=  402 AccDes= 0.00D+00 IRadAn=         1 IDoV= 1
 ScaDFX=  1.000000  1.000000  1.000000  1.000000
 FoFCou: FMM=F IPFlag=           0 FMFlag=      100000 FMFlg1=           0
         NFxFlg=           0 DoJE=T BraDBF=F KetDBF=T FulRan=T
         Omega=  0.000000  0.000000  1.000000  0.000000  0.000000 ICntrl=     500 IOpCl=  0
         NMat0=    1 NMatS0=    1 NMatT0=    0 NMatD0=    1 NMtDS0=    0 NMtDT0=    0
         I1Cent=           4 NGrid=           0.
 Petite list used in FoFCou.
 Initial guess orbital symmetries:
       Occupied  (A) (A) (A) (A) (A) (A) (A) (A) (A) (A) (A) (A)
                 (A) (A) (A) (A) (A) (A) (A) (A) (A) (A) (A) (A)
                 (A) (A) (A) (A) (A) (A) (A) (A) (A) (A) (A) (A)
                 (A) (A) (A) (A) (A) (A) (A) (A) (A) (A) (A) (A)
                 (A) (A) (A) (A) (A) (A) (A)
       Virtual   (A) (A) (A) (A) (A) (A) (A) (A) (A) (A) (A) (A)
                 (A) (A) (A) (A) (A) (A) (A) (A) (A) (A) (A) (A)
                 (A) (A) (A) (A) (A) (A) (A) (A) (A) (A) (A) (A)
                 (A) (A) (A) (A) (A) (A) (A) (A) (A) (A) (A) (A)
                 (A) (A) (A) (A) (A) (A) (A) (A) (A) (A) (A) (A)
                 (A) (A) (A) (A) (A) (A) (A) (A) (A) (A) (A) (A)
                 (A) (A) (A) (A) (A) (A) (A) (A) (A) (A) (A) (A)
                 (A) (A) (A) (A) (A) (A) (A) (A) (A) (A) (A) (A)
                 (A) (A) (A) (A) (A) (A) (A) (A) (A) (A) (A) (A)
                 (A) (A) (A) (A) (A) (A) (A) (A) (A) (A) (A) (A)
                 (A) (A) (A) (A) (A) (A) (A) (A) (A) (A) (A) (A)
                 (A) (A) (A) (A) (A) (A) (A) (A) (A) (A) (A) (A)
                 (A) (A) (A) (A) (A) (A) (A) (A) (A) (A) (A) (A)
                 (A) (A) (A) (A) (A) (A) (A) (A) (A) (A) (A) (A)
                 (A) (A) (A) (A) (A) (A) (A) (A) (A) (A) (A) (A)
                 (A) (A) (A) (A) (A) (A) (A) (A) (A) (A) (A) (A)
                 (A) (A) (A) (A) (A) (A) (A) (A) (A) (A) (A) (A)
                 (A) (A) (A) (A) (A) (A) (A) (A) (A) (A) (A) (A)
                 (A) (A) (A) (A) (A) (A) (A) (A) (A) (A) (A) (A)
                 (A) (A) (A) (A) (A) (A) (A) (A) (A) (A) (A) (A)
                 (A) (A) (A) (A) (A)
 The electronic state of the initial guess is 1-A.
 Requested convergence on RMS density matrix=1.00D-08 within 128 cycles.
 Requested convergence on MAX density matrix=1.00D-06.
 Requested convergence on             energy=1.00D-06.
 No special actions if energy rises.
 Keep R1 ints in memory in canonical form, NReq=1033483740.
 Integral accuracy reduced to 1.0D-05 until final iterations.
 Initial convergence to 1.0D-05 achieved.  Increase integral accuracy.
 SCF Done:  E(RB3LYP) =  -688.986816626     A.U. after   14 cycles
             Convg  =    0.8381D-08             -V/T =  2.0093

 **********************************************************************

            Population analysis using the SCF density.

 **********************************************************************

 Orbital symmetries:
       Occupied  (A) (A) (A) (A) (A) (A) (A) (A) (A) (A) (A) (A)
                 (A) (A) (A) (A) (A) (A) (A) (A) (A) (A) (A) (A)
                 (A) (A) (A) (A) (A) (A) (A) (A) (A) (A) (A) (A)
                 (A) (A) (A) (A) (A) (A) (A) (A) (A) (A) (A) (A)
                 (A) (A) (A) (A) (A) (A) (A)
       Virtual   (A) (A) (A) (A) (A) (A) (A) (A) (A) (A) (A) (A)
                 (A) (A) (A) (A) (A) (A) (A) (A) (A) (A) (A) (A)
                 (A) (A) (A) (A) (A) (A) (A) (A) (A) (A) (A) (A)
                 (A) (A) (A) (A) (A) (A) (A) (A) (A) (A) (A) (A)
                 (A) (A) (A) (A) (A) (A) (A) (A) (A) (A) (A) (A)
                 (A) (A) (A) (A) (A) (A) (A) (A) (A) (A) (A) (A)
                 (A) (A) (A) (A) (A) (A) (A) (A) (A) (A) (A) (A)
                 (A) (A) (A) (A) (A) (A) (A) (A) (A) (A) (A) (A)
                 (A) (A) (A) (A) (A) (A) (A) (A) (A) (A) (A) (A)
                 (A) (A) (A) (A) (A) (A) (A) (A) (A) (A) (A) (A)
                 (A) (A) (A) (A) (A) (A) (A) (A) (A) (A) (A) (A)
                 (A) (A) (A) (A) (A) (A) (A) (A) (A) (A) (A) (A)
                 (A) (A) (A) (A) (A) (A) (A) (A) (A) (A) (A) (A)
                 (A) (A) (A) (A) (A) (A) (A) (A) (A) (A) (A) (A)
                 (A) (A) (A) (A) (A) (A) (A) (A) (A) (A) (A) (A)
                 (A) (A) (A) (A) (A) (A) (A) (A) (A) (A) (A) (A)
                 (A) (A) (A) (A) (A) (A) (A) (A) (A) (A) (A) (A)
                 (A) (A) (A) (A) (A) (A) (A) (A) (A) (A) (A) (A)
                 (A) (A) (A) (A) (A) (A) (A) (A) (A) (A) (A) (A)
                 (A) (A) (A) (A) (A) (A) (A) (A) (A) (A) (A) (A)
                 (A) (A) (A) (A) (A)
 The electronic state is 1-A.
 Alpha  occ. eigenvalues --  -19.16601 -19.11538 -19.09496 -14.37197 -14.35579
 Alpha  occ. eigenvalues --  -10.29041 -10.27787 -10.25094 -10.24170 -10.23704
 Alpha  occ. eigenvalues --  -10.22890 -10.21933 -10.20235 -10.19715  -1.05010
 Alpha  occ. eigenvalues --   -1.03763  -1.01769  -0.93887  -0.92142  -0.77852
 Alpha  occ. eigenvalues --   -0.76016  -0.72193  -0.71223  -0.68808  -0.67306
 Alpha  occ. eigenvalues --   -0.63358  -0.56941  -0.53912  -0.51560  -0.50659
 Alpha  occ. eigenvalues --   -0.48987  -0.48391  -0.47706  -0.46610  -0.46167
 Alpha  occ. eigenvalues --   -0.44916  -0.44458  -0.43181  -0.42502  -0.40487
 Alpha  occ. eigenvalues --   -0.40098  -0.39770  -0.39598  -0.39232  -0.38165
 Alpha  occ. eigenvalues --   -0.37443  -0.36839  -0.35729  -0.34562  -0.33589
 Alpha  occ. eigenvalues --   -0.27301  -0.25538  -0.24725  -0.23483  -0.22762
 Alpha virt. eigenvalues --    0.01707   0.03454   0.06750   0.07608   0.09405
 Alpha virt. eigenvalues --    0.10219   0.11775   0.11980   0.13244   0.13952
 Alpha virt. eigenvalues --    0.14440   0.14934   0.15166   0.15881   0.16125
 Alpha virt. eigenvalues --    0.16646   0.17065   0.17762   0.18538   0.18681
 Alpha virt. eigenvalues --    0.19553   0.20323   0.20875   0.22433   0.22735
 Alpha virt. eigenvalues --    0.24373   0.25156   0.27057   0.29524   0.33827
 Alpha virt. eigenvalues --    0.34381   0.36781   0.40888   0.46806   0.47805
 Alpha virt. eigenvalues --    0.49598   0.50418   0.50672   0.53018   0.53792
 Alpha virt. eigenvalues --    0.54130   0.55082   0.55948   0.56926   0.57506
 Alpha virt. eigenvalues --    0.58683   0.60149   0.62628   0.63495   0.64066
 Alpha virt. eigenvalues --    0.66871   0.67697   0.69249   0.70496   0.70920
 Alpha virt. eigenvalues --    0.72373   0.74200   0.74776   0.75916   0.77842
 Alpha virt. eigenvalues --    0.78562   0.79013   0.79952   0.81361   0.82796
 Alpha virt. eigenvalues --    0.83818   0.84147   0.85002   0.85597   0.85692
 Alpha virt. eigenvalues --    0.86598   0.87441   0.89086   0.89339   0.89840
 Alpha virt. eigenvalues --    0.90663   0.92054   0.92581   0.93140   0.94893
 Alpha virt. eigenvalues --    0.96132   0.97354   0.98781   0.99018   1.00918
 Alpha virt. eigenvalues --    1.02578   1.04422   1.05978   1.07745   1.11184
 Alpha virt. eigenvalues --    1.11978   1.15788   1.18982   1.20140   1.23821
 Alpha virt. eigenvalues --    1.25480   1.26875   1.29293   1.30300   1.32864
 Alpha virt. eigenvalues --    1.35390   1.36093   1.37131   1.38075   1.39997
 Alpha virt. eigenvalues --    1.41231   1.44312   1.47820   1.51147   1.53747
 Alpha virt. eigenvalues --    1.57171   1.58221   1.62032   1.63076   1.65917
 Alpha virt. eigenvalues --    1.67796   1.68335   1.70432   1.73242   1.74520
 Alpha virt. eigenvalues --    1.75485   1.77662   1.79488   1.81180   1.82846
 Alpha virt. eigenvalues --    1.83780   1.84084   1.86649   1.86665   1.87282
 Alpha virt. eigenvalues --    1.89971   1.90739   1.91351   1.92326   1.93767
 Alpha virt. eigenvalues --    1.95577   1.96004   1.96565   1.98672   1.99435
 Alpha virt. eigenvalues --    2.01386   2.01589   2.02073   2.02499   2.03867
 Alpha virt. eigenvalues --    2.03996   2.04284   2.05255   2.06460   2.07402
 Alpha virt. eigenvalues --    2.08166   2.08957   2.09352   2.10209   2.12069
 Alpha virt. eigenvalues --    2.12969   2.13391   2.16010   2.18311   2.20452
 Alpha virt. eigenvalues --    2.22050   2.22870   2.24941   2.27997   2.28165
 Alpha virt. eigenvalues --    2.30219   2.33406   2.34428   2.37886   2.39231
 Alpha virt. eigenvalues --    2.42897   2.43758   2.45882   2.48474   2.50990
 Alpha virt. eigenvalues --    2.52176   2.53984   2.55199   2.55848   2.56996
 Alpha virt. eigenvalues --    2.58396   2.60213   2.60898   2.62573   2.64268
 Alpha virt. eigenvalues --    2.66247   2.68311   2.69197   2.69713   2.70267
 Alpha virt. eigenvalues --    2.71757   2.73782   2.74308   2.76191   2.78165
 Alpha virt. eigenvalues --    2.80003   2.82222   2.83123   2.84163   2.84885
 Alpha virt. eigenvalues --    2.86214   2.88615   2.89218   2.90794   2.92774
 Alpha virt. eigenvalues --    2.96423   2.97289   3.00757   3.05079   3.06595
 Alpha virt. eigenvalues --    3.09617   3.14318   3.16553   3.17053   3.19187
 Alpha virt. eigenvalues --    3.22195   3.24901   3.25650   3.34050   3.34406
 Alpha virt. eigenvalues --    3.36611   3.39731   3.41252   3.41962   3.42767
 Alpha virt. eigenvalues --    3.44696   3.45185   3.45708   3.47108   3.51643
 Alpha virt. eigenvalues --    3.53634   3.98639   4.00415   4.03707   4.10646
 Alpha virt. eigenvalues --    4.23298   4.32186   4.34560   4.41696   4.44801
 Alpha virt. eigenvalues --    4.51188   4.56146   4.58786   4.68873   4.72332
          Condensed to atoms (all electrons):
              1          2          3          4          5          6
     1  C    5.166082   0.343340  -0.079379  -0.124530   0.006282   0.000009
     2  C    0.343340   4.369934   0.584407   0.257353  -0.032394  -0.001941
     3  O   -0.079379   0.584407   8.062838  -0.100005   0.004343   0.014833
     4  N   -0.124530   0.257353  -0.100005   7.188885   0.201974  -0.023308
     5  C    0.006282  -0.032394   0.004343   0.201974   5.101882   0.323114
     6  C    0.000009  -0.001941   0.014833  -0.023308   0.323114   4.352454
     7  O   -0.000008  -0.000152  -0.002069   0.002127  -0.074388   0.565085
     8  N   -0.000020  -0.000414  -0.003793   0.006593  -0.108987   0.266941
     9  C   -0.000112   0.000582   0.000222  -0.008476  -0.001200  -0.020241
    10  C    0.000000  -0.000089  -0.000047  -0.000184   0.005460  -0.028808
    11  H    0.369045  -0.022801   0.004599   0.004402  -0.000129   0.000000
    12  H    0.357291  -0.022134   0.002026   0.003813   0.000020  -0.000012
    13  H    0.363988  -0.019422   0.000764   0.001346  -0.000282   0.000001
    14  H   -0.000156   0.005312   0.000687  -0.041062   0.361546  -0.027009
    15  H    0.000040  -0.003197   0.002739  -0.040491   0.369721  -0.030592
    16  H   -0.000056  -0.001005  -0.000450   0.001923   0.003381  -0.005815
    17  H   -0.000001   0.000075   0.000011   0.000488  -0.000539   0.001915
    18  H    0.000236   0.001680   0.001426  -0.001511   0.000716  -0.001223
    19  H    0.000000   0.000000  -0.000002   0.000000  -0.000195   0.001855
    20  H    0.000000  -0.000006  -0.000023  -0.000014   0.001070  -0.004161
    21  H    0.000002   0.000010   0.000163  -0.000010  -0.000048   0.000533
    22  C    0.000636  -0.021924   0.002261   0.240902  -0.032868   0.002742
    23  H    0.007431  -0.007872   0.000167  -0.030467   0.002807  -0.000115
    24  H   -0.000362   0.001563  -0.000026  -0.038772  -0.001889   0.000082
    25  C   -0.000773  -0.000268  -0.000043  -0.051610  -0.002557  -0.000006
    26  H   -0.000297   0.000717  -0.000015   0.003470  -0.000098   0.000040
    27  H    0.000036  -0.000043   0.000001   0.000574   0.000751  -0.000283
    28  O   -0.000007   0.000013   0.000000   0.001916  -0.000009   0.000000
    29  C    0.000000  -0.000001   0.000000  -0.000122   0.000000   0.000000
    30  H    0.000000   0.000000   0.000000   0.000001   0.000000   0.000000
    31  H    0.000000   0.000000   0.000000   0.000011  -0.000002   0.000000
    32  H    0.000000   0.000000   0.000000   0.000008   0.000000   0.000000
              7          8          9         10         11         12
     1  C   -0.000008  -0.000020  -0.000112   0.000000   0.369045   0.357291
     2  C   -0.000152  -0.000414   0.000582  -0.000089  -0.022801  -0.022134
     3  O   -0.002069  -0.003793   0.000222  -0.000047   0.004599   0.002026
     4  N    0.002127   0.006593  -0.008476  -0.000184   0.004402   0.003813
     5  C   -0.074388  -0.108987  -0.001200   0.005460  -0.000129   0.000020
     6  C    0.565085   0.266941  -0.020241  -0.028808   0.000000  -0.000012
     7  O    8.101628  -0.092663   0.003008  -0.015068   0.000000   0.000000
     8  N   -0.092663   7.008456   0.297191   0.299598   0.000002   0.000005
     9  C    0.003008   0.297191   4.805930  -0.052778  -0.000004   0.000016
    10  C   -0.015068   0.299598  -0.052778   4.820088   0.000000   0.000000
    11  H    0.000000   0.000002  -0.000004   0.000000   0.541989  -0.023546
    12  H    0.000000   0.000005   0.000016   0.000000  -0.023546   0.591613
    13  H    0.000000  -0.000001   0.000004   0.000000  -0.021304  -0.030007
    14  H    0.000741   0.001274  -0.000071  -0.000118   0.000003  -0.000008
    15  H    0.008487   0.004998  -0.000059  -0.000159  -0.000005  -0.000003
    16  H    0.000059  -0.029946   0.383201   0.004529  -0.000001   0.000083
    17  H   -0.000052  -0.042095   0.382634  -0.004880   0.000000  -0.000002
    18  H   -0.000037  -0.046301   0.380380  -0.000213   0.000003  -0.000053
    19  H    0.000721  -0.043366  -0.003070   0.382506   0.000000   0.000000
    20  H    0.026108  -0.035087   0.004646   0.382217   0.000000   0.000000
    21  H    0.000742  -0.048057  -0.001155   0.387652   0.000000   0.000000
    22  C   -0.000040  -0.000105   0.000291   0.000003   0.000402  -0.002448
    23  H    0.000001   0.000005  -0.000040   0.000000  -0.000022  -0.001656
    24  H    0.000000   0.000006  -0.000036   0.000000  -0.000015   0.000215
    25  C   -0.000001   0.000009  -0.000622   0.000001   0.000009  -0.000071
    26  H    0.000000   0.000000  -0.000261   0.000000  -0.000023   0.002240
    27  H    0.000001   0.000025  -0.000893  -0.000002   0.000001  -0.000060
    28  O    0.000000   0.000000   0.000009   0.000000   0.000000  -0.000039
    29  C    0.000000   0.000000   0.000001   0.000000   0.000000  -0.000002
    30  H    0.000000   0.000000   0.000000   0.000000   0.000000   0.000000
    31  H    0.000000   0.000000  -0.000002   0.000000   0.000000   0.000000
    32  H    0.000000   0.000000   0.000000   0.000000   0.000000   0.000003
             13         14         15         16         17         18
     1  C    0.363988  -0.000156   0.000040  -0.000056  -0.000001   0.000236
     2  C   -0.019422   0.005312  -0.003197  -0.001005   0.000075   0.001680
     3  O    0.000764   0.000687   0.002739  -0.000450   0.000011   0.001426
     4  N    0.001346  -0.041062  -0.040491   0.001923   0.000488  -0.001511
     5  C   -0.000282   0.361546   0.369721   0.003381  -0.000539   0.000716
     6  C    0.000001  -0.027009  -0.030592  -0.005815   0.001915  -0.001223
     7  O    0.000000   0.000741   0.008487   0.000059  -0.000052  -0.000037
     8  N   -0.000001   0.001274   0.004998  -0.029946  -0.042095  -0.046301
     9  C    0.000004  -0.000071  -0.000059   0.383201   0.382634   0.380380
    10  C    0.000000  -0.000118  -0.000159   0.004529  -0.004880  -0.000213
    11  H   -0.021304   0.000003  -0.000005  -0.000001   0.000000   0.000003
    12  H   -0.030007  -0.000008  -0.000003   0.000083  -0.000002  -0.000053
    13  H    0.566543  -0.000006   0.000038  -0.000002   0.000000   0.000004
    14  H   -0.000006   0.608045  -0.030071  -0.000714  -0.000007   0.000034
    15  H    0.000038  -0.030071   0.564054   0.000137   0.000004   0.000004
    16  H   -0.000002  -0.000714   0.000137   0.582637  -0.026588  -0.034332
    17  H    0.000000  -0.000007   0.000004  -0.026588   0.622993  -0.047501
    18  H    0.000004   0.000034   0.000004  -0.034332  -0.047501   0.622841
    19  H    0.000000   0.000013   0.000000   0.000083   0.007295  -0.001561
    20  H    0.000000  -0.000040  -0.000026  -0.000241   0.000047  -0.000131
    21  H    0.000000  -0.000004   0.000008  -0.000058  -0.002313   0.006451
    22  C   -0.002376  -0.000102  -0.003397  -0.002454   0.000016  -0.000057
    23  H    0.001720   0.000316   0.000095   0.000041   0.000001   0.000001
    24  H    0.000268  -0.002298   0.004025   0.000111   0.000001  -0.000003
    25  C    0.000015  -0.000530  -0.000287   0.001477  -0.000027   0.000048
    26  H    0.000044  -0.000209  -0.000001   0.001496   0.000025   0.000021
    27  H   -0.000005   0.003775   0.000050   0.002935   0.000068  -0.000019
    28  O   -0.000001  -0.000126   0.000003  -0.000030   0.000000   0.000000
    29  C    0.000000   0.000001   0.000000  -0.000003   0.000000   0.000000
    30  H    0.000000   0.000000   0.000000   0.000000   0.000000   0.000000
    31  H    0.000000   0.000003   0.000000   0.000009   0.000000   0.000000
    32  H    0.000000   0.000000   0.000000   0.000003   0.000000   0.000000
             19         20         21         22         23         24
     1  C    0.000000   0.000000   0.000002   0.000636   0.007431  -0.000362
     2  C    0.000000  -0.000006   0.000010  -0.021924  -0.007872   0.001563
     3  O   -0.000002  -0.000023   0.000163   0.002261   0.000167  -0.000026
     4  N    0.000000  -0.000014  -0.000010   0.240902  -0.030467  -0.038772
     5  C   -0.000195   0.001070  -0.000048  -0.032868   0.002807  -0.001889
     6  C    0.001855  -0.004161   0.000533   0.002742  -0.000115   0.000082
     7  O    0.000721   0.026108   0.000742  -0.000040   0.000001   0.000000
     8  N   -0.043366  -0.035087  -0.048057  -0.000105   0.000005   0.000006
     9  C   -0.003070   0.004646  -0.001155   0.000291  -0.000040  -0.000036
    10  C    0.382506   0.382217   0.387652   0.000003   0.000000   0.000000
    11  H    0.000000   0.000000   0.000000   0.000402  -0.000022  -0.000015
    12  H    0.000000   0.000000   0.000000  -0.002448  -0.001656   0.000215
    13  H    0.000000   0.000000   0.000000  -0.002376   0.001720   0.000268
    14  H    0.000013  -0.000040  -0.000004  -0.000102   0.000316  -0.002298
    15  H    0.000000  -0.000026   0.000008  -0.003397   0.000095   0.004025
    16  H    0.000083  -0.000241  -0.000058  -0.002454   0.000041   0.000111
    17  H    0.007295   0.000047  -0.002313   0.000016   0.000001   0.000001
    18  H   -0.001561  -0.000131   0.006451  -0.000057   0.000001  -0.000003
    19  H    0.623229  -0.024122  -0.045788   0.000000   0.000000   0.000000
    20  H   -0.024122   0.512900  -0.024615   0.000000   0.000000   0.000000
    21  H   -0.045788  -0.024615   0.611242   0.000000   0.000000   0.000000
    22  C    0.000000   0.000000   0.000000   4.893187   0.377460   0.379704
    23  H    0.000000   0.000000   0.000000   0.377460   0.592273  -0.031421
    24  H    0.000000   0.000000   0.000000   0.379704  -0.031421   0.606436
    25  C    0.000000   0.000000   0.000000   0.361178  -0.040726  -0.050285
    26  H    0.000000   0.000000   0.000000  -0.038030  -0.009062   0.006797
    27  H    0.000000   0.000000   0.000000  -0.038605   0.006580  -0.008240
    28  O    0.000000   0.000000   0.000000  -0.040494   0.005277   0.006173
    29  C    0.000000   0.000000   0.000000   0.004554  -0.000087  -0.000130
    30  H    0.000000   0.000000   0.000000  -0.000256   0.000005   0.000010
    31  H    0.000000   0.000000   0.000000   0.000031   0.000050  -0.000058
    32  H    0.000000   0.000000   0.000000   0.000032  -0.000067   0.000049
             25         26         27         28         29         30
     1  C   -0.000773  -0.000297   0.000036  -0.000007   0.000000   0.000000
     2  C   -0.000268   0.000717  -0.000043   0.000013  -0.000001   0.000000
     3  O   -0.000043  -0.000015   0.000001   0.000000   0.000000   0.000000
     4  N   -0.051610   0.003470   0.000574   0.001916  -0.000122   0.000001
     5  C   -0.002557  -0.000098   0.000751  -0.000009   0.000000   0.000000
     6  C   -0.000006   0.000040  -0.000283   0.000000   0.000000   0.000000
     7  O   -0.000001   0.000000   0.000001   0.000000   0.000000   0.000000
     8  N    0.000009   0.000000   0.000025   0.000000   0.000000   0.000000
     9  C   -0.000622  -0.000261  -0.000893   0.000009   0.000001   0.000000
    10  C    0.000001   0.000000  -0.000002   0.000000   0.000000   0.000000
    11  H    0.000009  -0.000023   0.000001   0.000000   0.000000   0.000000
    12  H   -0.000071   0.002240  -0.000060  -0.000039  -0.000002   0.000000
    13  H    0.000015   0.000044  -0.000005  -0.000001   0.000000   0.000000
    14  H   -0.000530  -0.000209   0.003775  -0.000126   0.000001   0.000000
    15  H   -0.000287  -0.000001   0.000050   0.000003   0.000000   0.000000
    16  H    0.001477   0.001496   0.002935  -0.000030  -0.000003   0.000000
    17  H   -0.000027   0.000025   0.000068   0.000000   0.000000   0.000000
    18  H    0.000048   0.000021  -0.000019   0.000000   0.000000   0.000000
    19  H    0.000000   0.000000   0.000000   0.000000   0.000000   0.000000
    20  H    0.000000   0.000000   0.000000   0.000000   0.000000   0.000000
    21  H    0.000000   0.000000   0.000000   0.000000   0.000000   0.000000
    22  C    0.361178  -0.038030  -0.038605  -0.040494   0.004554  -0.000256
    23  H   -0.040726  -0.009062   0.006580   0.005277  -0.000087   0.000005
    24  H   -0.050285   0.006797  -0.008240   0.006173  -0.000130   0.000010
    25  C    4.777865   0.360123   0.365066   0.232243  -0.034471   0.005303
    26  H    0.360123   0.686502  -0.063634  -0.039350  -0.006083  -0.000114
    27  H    0.365066  -0.063634   0.682402  -0.038831  -0.006068  -0.000108
    28  O    0.232243  -0.039350  -0.038831   8.211660   0.257729  -0.032561
    29  C   -0.034471  -0.006083  -0.006068   0.257729   4.710097   0.395364
    30  H    0.005303  -0.000114  -0.000108  -0.032561   0.395364   0.579249
    31  H   -0.008992  -0.002676   0.013243  -0.037355   0.371290  -0.034123
    32  H   -0.008778   0.012951  -0.002731  -0.037436   0.370988  -0.034563
             31         32
     1  C    0.000000   0.000000
     2  C    0.000000   0.000000
     3  O    0.000000   0.000000
     4  N    0.000011   0.000008
     5  C   -0.000002   0.000000
     6  C    0.000000   0.000000
     7  O    0.000000   0.000000
     8  N    0.000000   0.000000
     9  C   -0.000002   0.000000
    10  C    0.000000   0.000000
    11  H    0.000000   0.000000
    12  H    0.000000   0.000003
    13  H    0.000000   0.000000
    14  H    0.000003   0.000000
    15  H    0.000000   0.000000
    16  H    0.000009   0.000003
    17  H    0.000000   0.000000
    18  H    0.000000   0.000000
    19  H    0.000000   0.000000
    20  H    0.000000   0.000000
    21  H    0.000000   0.000000
    22  C    0.000031   0.000032
    23  H    0.000050  -0.000067
    24  H   -0.000058   0.000049
    25  C   -0.008992  -0.008778
    26  H   -0.002676   0.012951
    27  H    0.013243  -0.002731
    28  O   -0.037355  -0.037436
    29  C    0.371290   0.370988
    30  H   -0.034123  -0.034563
    31  H    0.654369  -0.051785
    32  H   -0.051785   0.656493
 Mulliken atomic charges:
              1
     1  C   -0.408716
     2  C    0.568677
     3  O   -0.495634
     4  N   -0.455222
     5  C   -0.127482
     6  C    0.613909
     7  O   -0.524231
     8  N   -0.434269
     9  C   -0.169094
    10  C   -0.179709
    11  H    0.147396
    12  H    0.122715
    13  H    0.138671
    14  H    0.120782
    15  H    0.153886
    16  H    0.119590
    17  H    0.108431
    18  H    0.119096
    19  H    0.102401
    20  H    0.161476
    21  H    0.115248
    22  C   -0.080247
    23  H    0.127306
    24  H    0.128096
    25  C    0.096712
    26  H    0.085426
    27  H    0.084014
    28  O   -0.488783
    29  C   -0.063057
    30  H    0.121793
    31  H    0.095986
    32  H    0.094834
 Sum of Mulliken atomic charges =   0.00000
 Mulliken charges with hydrogens summed into heavy atoms:
              1
     1  C    0.000065
     2  C    0.568677
     3  O   -0.495634
     4  N   -0.455222
     5  C    0.147185
     6  C    0.613909
     7  O   -0.524231
     8  N   -0.434269
     9  C    0.178024
    10  C    0.199416
    22  C    0.175155
    25  C    0.266152
    28  O   -0.488783
    29  C    0.249556
 Sum of Mulliken charges with hydrogens summed into heavy atoms =   0.00000
 Electronic spatial extent (au):  <R**2>=           3645.1440
 Charge=              0.0000 electrons
 Dipole moment (field-independent basis, Debye):
    X=              5.1263    Y=             -1.9139    Z=             -3.0094  Tot=              6.2449
 Quadrupole moment (field-independent basis, Debye-Ang):
   XX=            -92.4501   YY=            -81.5572   ZZ=            -85.5053
   XY=              3.0769   XZ=              6.2347   YZ=              2.0985
 Traceless Quadrupole moment (field-independent basis, Debye-Ang):
   XX=             -5.9459   YY=              4.9470   ZZ=              0.9989
   XY=              3.0769   XZ=              6.2347   YZ=              2.0985
 Octapole moment (field-independent basis, Debye-Ang**2):
  XXX=             38.2280  YYY=              2.1883  ZZZ=             -2.5772  XYY=             19.2704
  XXY=            -31.2635  XXZ=            -39.0267  XZZ=             10.3663  YZZ=              4.0750
  YYZ=             -2.4640  XYZ=             -4.7508
 Hexadecapole moment (field-independent basis, Debye-Ang**3):
 XXXX=          -2937.6581 YYYY=          -1052.2417 ZZZZ=           -538.4291 XXXY=            -79.7194
 XXXZ=             41.7218 YYYX=             15.6914 YYYZ=             -5.5762 ZZZX=             21.7001
 ZZZY=              0.9734 XXYY=           -658.7938 XXZZ=           -641.7927 YYZZ=           -260.7379
 XXYZ=             27.0175 YYXZ=              3.6376 ZZXY=             -6.8680
 N-N= 9.776346452469D+02 E-N=-3.560833277878D+03  KE= 6.826153307006D+02
 Calling FoFJK, ICntrl=      2127 FMM=F ISym2X=0 I1Cent= 0 IOpClX= 0 NMat=1 NMatS=1 NMatT=0.
 ***** Axes restored to original set *****
 -------------------------------------------------------------------
 Center     Atomic                   Forces (Hartrees/Bohr)
 Number     Number              X              Y              Z
 -------------------------------------------------------------------
      1        6          -0.000002500    0.000001055    0.000008013
      2        6          -0.000326984   -0.000726399   -0.000979380
      3        8          -0.000000693    0.000002659    0.000002831
      4        7           0.000198309    0.001568388    0.001625222
      5        6           0.000594386   -0.001856527   -0.001068249
      6        6          -0.000463802    0.001017593    0.000415829
      7        8          -0.000005905   -0.000013116    0.000001865
      8        7           0.000004728   -0.000001095   -0.000008895
      9        6           0.000003733   -0.000002476    0.000000631
     10        6           0.000006180    0.000000674   -0.000004520
     11        1          -0.000001575    0.000004296    0.000009212
     12        1          -0.000000366    0.000004972    0.000006404
     13        1          -0.000002638    0.000001862    0.000008762
     14        1           0.000004623   -0.000005644   -0.000001237
     15        1          -0.000006448   -0.000008380    0.000006784
     16        1           0.000001371    0.000002418   -0.000002654
     17        1           0.000000178    0.000003207   -0.000008263
     18        1          -0.000001328    0.000005308   -0.000005358
     19        1           0.000000288    0.000000588   -0.000006035
     20        1          -0.000002835   -0.000004368   -0.000004904
     21        1           0.000000700    0.000002847   -0.000003350
     22        6          -0.000001871   -0.000000577    0.000005491
     23        1          -0.000001186   -0.000002722    0.000007709
     24        1           0.000000028   -0.000006412    0.000005487
     25        6           0.000002512    0.000001208    0.000002764
     26        1          -0.000000882    0.000002525   -0.000002014
     27        1           0.000000460   -0.000002197   -0.000002618
     28        8          -0.000005027    0.000003552    0.000002186
     29        6           0.000005189   -0.000002695   -0.000005389
     30        1           0.000000458    0.000001627   -0.000000830
     31        1           0.000000372    0.000002018   -0.000004215
     32        1           0.000000525    0.000005811   -0.000001278
 -------------------------------------------------------------------
 Cartesian Forces:  Max     0.001856527 RMS     0.000369410

 GradGradGradGradGradGradGradGradGradGradGradGradGradGradGradGradGradGrad
 Berny optimization.
 Internal  Forces:  Max     0.001145138 RMS     0.000152946
 Search for a local minimum.
 Step number   1 out of a maximum of  155 on scan point     1 out of    37
 All quantities printed in internal units (Hartrees-Bohrs-Radians)
 Mixed Optimization -- En-DIIS/RFO-DIIS
 Second derivative matrix not updated -- first step.
 ITU=  0
     Eigenvalues ---    0.00374   0.00467   0.00725   0.00829   0.00935
     Eigenvalues ---    0.01028   0.01051   0.01210   0.01332   0.01508
     Eigenvalues ---    0.01549   0.01924   0.02062   0.02339   0.04080
     Eigenvalues ---    0.05388   0.05495   0.05883   0.06181   0.06868
     Eigenvalues ---    0.07301   0.07478   0.07485   0.07590   0.07664
     Eigenvalues ---    0.09503   0.10039   0.10514   0.11085   0.11109
     Eigenvalues ---    0.11843   0.12947   0.13596   0.16000   0.16000
     Eigenvalues ---    0.16000   0.16000   0.16000   0.16000   0.16000
     Eigenvalues ---    0.16000   0.16000   0.16000   0.16000   0.16000
     Eigenvalues ---    0.21924   0.21951   0.22144   0.22293   0.23641
     Eigenvalues ---    0.24542   0.24763   0.24845   0.24988   0.25000
     Eigenvalues ---    0.25000   0.25000   0.28251   0.29455   0.30116
     Eigenvalues ---    0.33262   0.33283   0.33578   0.33581   0.33761
     Eigenvalues ---    0.33909   0.34057   0.34073   0.34106   0.34141
     Eigenvalues ---    0.34180   0.34340   0.34390   0.34576   0.34828
     Eigenvalues ---    0.34851   0.35057   0.35219   0.35664   0.36317
     Eigenvalues ---    0.37312   0.38218   0.43399   0.43877   0.48663
     Eigenvalues ---    0.50585   0.92648   0.932901000.000001000.00000
     Eigenvalues --- 1000.000001000.000001000.000001000.000001000.00000
     Eigenvalues --- 1000.000001000.000001000.000001000.000001000.00000
     Eigenvalues --- 1000.000001000.000001000.000001000.000001000.00000
     Eigenvalues --- 1000.000001000.000001000.000001000.000001000.00000
     Eigenvalues --- 1000.000001000.000001000.000001000.000001000.00000
     Eigenvalues --- 1000.000001000.000001000.000001000.000001000.00000
     Eigenvalues --- 1000.000001000.000001000.000001000.000001000.00000
     Eigenvalues --- 1000.000001000.000001000.000001000.000001000.00000
     Eigenvalues --- 1000.000001000.000001000.000001000.000001000.00000
     Eigenvalues --- 1000.000001000.000001000.000001000.000001000.00000
     Eigenvalues --- 1000.000001000.000001000.000001000.000001000.00000
 RFO step:  Lambda=-1.21273283D-08 EMin= 3.73669658D-03
 Linear search not attempted -- first point.
 Iteration  1 RMS(Cart)=  0.00014421 RMS(Int)=  0.00000001
 Iteration  2 RMS(Cart)=  0.00000003 RMS(Int)=  0.00000000
 Iteration  1 RMS(Cart)=  0.00000000 RMS(Int)=  0.00000000
 Variable       Old X    -DE/DX   Delta X   Delta X   Delta X     New X
                                 (Linear)    (Quad)   (Total)
    R1        2.87732   0.00000   0.00000   0.00000   0.00000   2.87732
    R2        2.05918   0.00000   0.00000   0.00000   0.00000   2.05918
    R3        2.06677   0.00000   0.00000   0.00000   0.00000   2.06677
    R4        2.07028   0.00000   0.00000   0.00000   0.00000   2.07027
    R5        2.31453   0.00000   0.00000   0.00000   0.00000   2.31453
    R6        2.61239   0.00001   0.00000   0.00003   0.00003   2.61242
    R7        2.77909  -0.00001   0.00000  -0.00003  -0.00003   2.77907
    R8        2.76889   0.00000   0.00000   0.00000   0.00000   2.76889
    R9        2.91594  -0.00001   0.00000  -0.00004  -0.00004   2.91590
   R10        2.07093   0.00000   0.00000   0.00001   0.00001   2.07094
   R11        2.06760   0.00000   0.00000   0.00001   0.00001   2.06762
   R12        2.31736   0.00001   0.00000   0.00001   0.00001   2.31737
   R13        2.59280   0.00000   0.00000   0.00001   0.00001   2.59281
   R14        2.74049   0.00000   0.00000   0.00000   0.00000   2.74049
   R15        2.75378   0.00000   0.00000   0.00000   0.00000   2.75377
   R16        2.05321   0.00000   0.00000   0.00000   0.00000   2.05321
   R17        2.07151   0.00000   0.00000   0.00001   0.00001   2.07152
   R18        2.07736   0.00000   0.00000   0.00001   0.00001   2.07737
   R19        2.07234   0.00000   0.00000   0.00000   0.00000   2.07234
   R20        2.05583   0.00000   0.00000   0.00001   0.00001   2.05583
   R21        2.07483   0.00000   0.00000   0.00000   0.00000   2.07483
   R22        2.05955   0.00000   0.00000  -0.00001  -0.00001   2.05955
   R23        2.07208   0.00000   0.00000   0.00001   0.00001   2.07209
   R24        2.89063   0.00000   0.00000   0.00000   0.00000   2.89063
   R25        2.08557   0.00000   0.00000   0.00001   0.00001   2.08558
   R26        2.08594   0.00000   0.00000   0.00001   0.00001   2.08594
   R27        2.66602   0.00000   0.00000   0.00000   0.00000   2.66601
   R28        2.67180   0.00000   0.00000   0.00001   0.00001   2.67182
   R29        2.06369   0.00000   0.00000   0.00000   0.00000   2.06369
   R30        2.08043   0.00000   0.00000   0.00000   0.00000   2.08043
   R31        2.08048   0.00000   0.00000   0.00000   0.00000   2.08048
    A1        1.86947   0.00000   0.00000  -0.00001  -0.00001   1.86946
    A2        1.97214   0.00000   0.00000   0.00001   0.00001   1.97215
    A3        1.93754   0.00000   0.00000   0.00001   0.00001   1.93755
    A4        1.91093   0.00000   0.00000   0.00000   0.00000   1.91093
    A5        1.88853   0.00000   0.00000  -0.00001  -0.00001   1.88852
    A6        1.88366   0.00000   0.00000   0.00000   0.00000   1.88367
    A7        2.11198  -0.00001   0.00000  -0.00003  -0.00003   2.11195
    A8        2.06174   0.00001   0.00000   0.00002   0.00002   2.06177
    A9        2.10896   0.00000   0.00000   0.00001   0.00001   2.10897
   A10        2.04094  -0.00008   0.00000   0.00002   0.00002   2.04097
   A11        2.14555   0.00028   0.00000   0.00003   0.00003   2.14558
   A12        2.01653  -0.00006   0.00000  -0.00007  -0.00007   2.01646
   A13        2.10838  -0.00003   0.00000  -0.00002  -0.00002   2.10836
   A14        1.86824   0.00005   0.00000  -0.00003  -0.00003   1.86821
   A15        1.92670  -0.00004   0.00000   0.00006   0.00006   1.92676
   A16        1.87139   0.00047   0.00000   0.00003   0.00003   1.87142
   A17        1.79986  -0.00045   0.00000  -0.00003  -0.00003   1.79984
   A18        1.87829   0.00001   0.00000  -0.00001  -0.00001   1.87828
   A19        2.03007   0.00000   0.00000   0.00000   0.00000   2.03007
   A20        2.11727   0.00000   0.00000  -0.00001  -0.00001   2.11726
   A21        2.12951   0.00000   0.00000  -0.00003  -0.00003   2.12948
   A22        2.20189   0.00001   0.00000   0.00005   0.00005   2.20194
   A23        2.05934  -0.00001   0.00000  -0.00002  -0.00002   2.05931
   A24        2.00788   0.00000   0.00000  -0.00001  -0.00001   2.00787
   A25        1.93990   0.00000   0.00000   0.00001   0.00001   1.93991
   A26        1.90504   0.00000   0.00000  -0.00001  -0.00001   1.90503
   A27        1.95025   0.00000   0.00000  -0.00001  -0.00001   1.95024
   A28        1.89009   0.00000   0.00000   0.00001   0.00001   1.89010
   A29        1.89110   0.00000   0.00000   0.00001   0.00001   1.89111
   A30        1.88576   0.00000   0.00000  -0.00002  -0.00002   1.88574
   A31        1.92278   0.00000   0.00000   0.00000   0.00000   1.92278
   A32        1.89258   0.00000   0.00000   0.00002   0.00002   1.89261
   A33        1.93117   0.00000   0.00000   0.00000   0.00000   1.93116
   A34        1.91484   0.00000   0.00000  -0.00002  -0.00002   1.91482
   A35        1.89312   0.00000   0.00000   0.00001   0.00001   1.89312
   A36        1.90937   0.00000   0.00000  -0.00001  -0.00001   1.90936
   A37        1.92488   0.00000   0.00000   0.00001   0.00001   1.92489
   A38        1.91012   0.00000   0.00000   0.00001   0.00001   1.91012
   A39        1.97838   0.00000   0.00000  -0.00001  -0.00001   1.97837
   A40        1.85713   0.00000   0.00000   0.00000   0.00000   1.85712
   A41        1.89241   0.00000   0.00000   0.00001   0.00001   1.89243
   A42        1.89678   0.00000   0.00000  -0.00002  -0.00002   1.89676
   A43        1.92096   0.00000   0.00000   0.00000   0.00000   1.92096
   A44        1.93138   0.00000   0.00000   0.00001   0.00001   1.93139
   A45        1.86822   0.00000   0.00000   0.00000   0.00000   1.86821
   A46        1.87018   0.00000   0.00000  -0.00001  -0.00001   1.87017
   A47        1.94046   0.00000   0.00000   0.00001   0.00001   1.94046
   A48        1.93345   0.00000   0.00000   0.00000   0.00000   1.93345
   A49        1.97442   0.00000   0.00000   0.00000   0.00000   1.97442
   A50        1.87118   0.00000   0.00000   0.00000   0.00000   1.87118
   A51        1.94982   0.00000   0.00000  -0.00001  -0.00001   1.94981
   A52        1.95041   0.00000   0.00000  -0.00001  -0.00001   1.95040
   A53        1.90063   0.00000   0.00000   0.00000   0.00000   1.90063
   A54        1.90072   0.00000   0.00000   0.00001   0.00001   1.90073
   A55        1.89008   0.00000   0.00000   0.00001   0.00001   1.89009
    D1       -0.23031   0.00000   0.00000  -0.00002  -0.00002  -0.23034
    D2        2.87754   0.00000   0.00000  -0.00010  -0.00010   2.87744
    D3       -2.33613   0.00000   0.00000  -0.00002  -0.00002  -2.33615
    D4        0.77172   0.00000   0.00000  -0.00010  -0.00010   0.77162
    D5        1.82801   0.00000   0.00000  -0.00004  -0.00004   1.82797
    D6       -1.34733   0.00000   0.00000  -0.00012  -0.00012  -1.34744
    D7        3.00608   0.00017   0.00000   0.00005   0.00005   3.00613
    D8        0.30323  -0.00016   0.00000   0.00011   0.00011   0.30335
    D9       -0.16919   0.00016   0.00000  -0.00003  -0.00003  -0.16922
   D10       -2.87204  -0.00016   0.00000   0.00004   0.00004  -2.87201
   D11        0.84945  -0.00115   0.00000   0.00000   0.00000   0.84945
   D12        2.99458  -0.00047   0.00000   0.00000   0.00000   2.99458
   D13       -1.24916  -0.00045   0.00000   0.00000   0.00000  -1.24915
   D14       -2.69838  -0.00075   0.00000  -0.00004  -0.00004  -2.69842
   D15       -0.55325  -0.00007   0.00000  -0.00004  -0.00004  -0.55329
   D16        1.48620  -0.00006   0.00000  -0.00004  -0.00004   1.48616
   D17        0.10589   0.00016   0.00000  -0.00002  -0.00002   0.10587
   D18        2.14323   0.00016   0.00000  -0.00001  -0.00001   2.14321
   D19       -2.01961   0.00016   0.00000  -0.00004  -0.00004  -2.01964
   D20       -2.60257  -0.00016   0.00000   0.00003   0.00003  -2.60255
   D21       -0.56523  -0.00016   0.00000   0.00003   0.00003  -0.56520
   D22        1.55512  -0.00016   0.00000   0.00001   0.00001   1.55513
   D23       -2.43945   0.00031   0.00000  -0.00037  -0.00037  -2.43982
   D24        0.82060   0.00032   0.00000   0.00000   0.00000   0.82060
   D25        1.70011  -0.00016   0.00000  -0.00034  -0.00034   1.69977
   D26       -1.32303  -0.00016   0.00000   0.00003   0.00003  -1.32300
   D27       -0.27964  -0.00015   0.00000  -0.00033  -0.00033  -0.27998
   D28        2.98040  -0.00015   0.00000   0.00004   0.00004   2.98044
   D29       -0.13061   0.00000   0.00000  -0.00010  -0.00010  -0.13071
   D30       -3.08304   0.00000   0.00000  -0.00022  -0.00022  -3.08327
   D31        3.13624   0.00000   0.00000   0.00029   0.00029   3.13653
   D32        0.18380   0.00000   0.00000   0.00017   0.00017   0.18397
   D33        0.39784   0.00000   0.00000  -0.00010  -0.00010   0.39774
   D34        2.48143   0.00000   0.00000  -0.00009  -0.00009   2.48135
   D35       -1.71711   0.00000   0.00000  -0.00012  -0.00012  -1.71724
   D36       -2.92806   0.00000   0.00000   0.00001   0.00001  -2.92804
   D37       -0.84446   0.00000   0.00000   0.00003   0.00003  -0.84443
   D38        1.24017   0.00000   0.00000  -0.00001  -0.00001   1.24017
   D39       -2.26208   0.00000   0.00000   0.00007   0.00007  -2.26200
   D40       -0.16628   0.00000   0.00000   0.00006   0.00006  -0.16622
   D41        1.92785   0.00000   0.00000   0.00006   0.00006   1.92791
   D42        1.04788   0.00000   0.00000  -0.00004  -0.00004   1.04784
   D43       -3.13951   0.00000   0.00000  -0.00006  -0.00006  -3.13957
   D44       -1.04538   0.00000   0.00000  -0.00005  -0.00005  -1.04543
   D45        1.06560   0.00000   0.00000  -0.00012  -0.00012   1.06548
   D46       -0.99821   0.00000   0.00000  -0.00012  -0.00012  -0.99832
   D47       -3.10667   0.00000   0.00000  -0.00011  -0.00011  -3.10678
   D48       -1.07794   0.00000   0.00000  -0.00014  -0.00014  -1.07808
   D49        3.14144   0.00000   0.00000  -0.00013  -0.00013   3.14131
   D50        1.03298   0.00000   0.00000  -0.00013  -0.00013   1.03285
   D51       -3.08978   0.00000   0.00000  -0.00013  -0.00013  -3.08991
   D52        1.12960   0.00000   0.00000  -0.00013  -0.00013   1.12948
   D53       -0.97886   0.00000   0.00000  -0.00012  -0.00012  -0.97898
   D54        3.13127   0.00000   0.00000   0.00001   0.00001   3.13128
   D55       -1.05341   0.00000   0.00000   0.00002   0.00002  -1.05339
   D56        1.02412   0.00000   0.00000   0.00001   0.00001   1.02413
   D57       -3.13779   0.00000   0.00000   0.00001   0.00001  -3.13778
   D58       -1.05681   0.00000   0.00000   0.00001   0.00001  -1.05680
   D59        1.06396   0.00000   0.00000   0.00000   0.00000   1.06396
         Item               Value     Threshold  Converged?
 Maximum Force            0.000015     0.000450     YES
 RMS     Force            0.000003     0.000300     YES
 Maximum Displacement     0.000629     0.001800     YES
 RMS     Displacement     0.000144     0.001200     YES
 Predicted change in Energy=-6.062487D-09
 Optimization completed.
    -- Stationary point found.
                           ----------------------------
                           !   Optimized Parameters   !
                           ! (Angstroms and Degrees)  !
 --------------------------                            --------------------------
 ! Name  Definition              Value          Derivative Info.                !
 --------------------------------------------------------------------------------
 ! R1    R(1,2)                  1.5226         -DE/DX =    0.0                 !
 ! R2    R(1,11)                 1.0897         -DE/DX =    0.0                 !
 ! R3    R(1,12)                 1.0937         -DE/DX =    0.0                 !
 ! R4    R(1,13)                 1.0955         -DE/DX =    0.0                 !
 ! R5    R(2,3)                  1.2248         -DE/DX =    0.0                 !
 ! R6    R(2,4)                  1.3824         -DE/DX =    0.0                 !
 ! R7    R(4,5)                  1.4706         -DE/DX =    0.0                 !
 ! R8    R(4,22)                 1.4652         -DE/DX =    0.0                 !
 ! R9    R(5,6)                  1.543          -DE/DX =    0.0                 !
 ! R10   R(5,14)                 1.0959         -DE/DX =    0.0                 !
 ! R11   R(5,15)                 1.0941         -DE/DX =    0.0                 !
 ! R12   R(6,7)                  1.2263         -DE/DX =    0.0                 !
 ! R13   R(6,8)                  1.372          -DE/DX =    0.0                 !
 ! R14   R(8,9)                  1.4502         -DE/DX =    0.0                 !
 ! R15   R(8,10)                 1.4572         -DE/DX =    0.0                 !
 ! R16   R(9,16)                 1.0865         -DE/DX =    0.0                 !
 ! R17   R(9,17)                 1.0962         -DE/DX =    0.0                 !
 ! R18   R(9,18)                 1.0993         -DE/DX =    0.0                 !
 ! R19   R(10,19)                1.0966         -DE/DX =    0.0                 !
 ! R20   R(10,20)                1.0879         -DE/DX =    0.0                 !
 ! R21   R(10,21)                1.098          -DE/DX =    0.0                 !
 ! R22   R(22,23)                1.0899         -DE/DX =    0.0                 !
 ! R23   R(22,24)                1.0965         -DE/DX =    0.0                 !
 ! R24   R(22,25)                1.5297         -DE/DX =    0.0                 !
 ! R25   R(25,26)                1.1036         -DE/DX =    0.0                 !
 ! R26   R(25,27)                1.1038         -DE/DX =    0.0                 !
 ! R27   R(25,28)                1.4108         -DE/DX =    0.0                 !
 ! R28   R(28,29)                1.4139         -DE/DX =    0.0                 !
 ! R29   R(29,30)                1.0921         -DE/DX =    0.0                 !
 ! R30   R(29,31)                1.1009         -DE/DX =    0.0                 !
 ! R31   R(29,32)                1.1009         -DE/DX =    0.0                 !
 ! A1    A(2,1,11)             107.1126         -DE/DX =    0.0                 !
 ! A2    A(2,1,12)             112.9954         -DE/DX =    0.0                 !
 ! A3    A(2,1,13)             111.0131         -DE/DX =    0.0                 !
 ! A4    A(11,1,12)            109.4884         -DE/DX =    0.0                 !
 ! A5    A(11,1,13)            108.2049         -DE/DX =    0.0                 !
 ! A6    A(12,1,13)            107.9259         -DE/DX =    0.0                 !
 ! A7    A(1,2,3)              121.0075         -DE/DX =    0.0                 !
 ! A8    A(1,2,4)              118.1292         -DE/DX =    0.0                 !
 ! A9    A(3,2,4)              120.8346         -DE/DX =    0.0                 !
 ! A10   A(2,4,5)              116.9375         -DE/DX =   -0.0001              !
 ! A11   A(2,4,22)             122.931          -DE/DX =    0.0003              !
 ! A12   A(5,4,22)             115.5384         -DE/DX =   -0.0001              !
 ! A13   A(4,5,6)              120.8014         -DE/DX =    0.0                 !
 ! A14   A(4,5,14)             107.042          -DE/DX =    0.0001              !
 ! A15   A(4,5,15)             110.3919         -DE/DX =    0.0                 !
 ! A16   A(6,5,14)             107.2225         -DE/DX =    0.0005              !
[...]
    D7        3.04966  -0.00009   0.00033   0.00011   0.00044   3.05010
    D8        0.21509   0.00010  -0.00124  -0.00084  -0.00208   0.21301
    D9       -0.09627  -0.00009   0.00064   0.00021   0.00085  -0.09541
   D10       -2.93084   0.00009  -0.00093  -0.00074  -0.00167  -2.93251
   D11        0.84944   0.00230   0.00000   0.00000   0.00000   0.84944
   D12        3.05929  -0.00069   0.00024   0.00015   0.00039   3.05968
   D13       -1.20179  -0.00058   0.00030   0.00007   0.00037  -1.20142
   D14       -2.58105   0.00211   0.00144   0.00087   0.00231  -2.57874
   D15       -0.37120  -0.00088   0.00168   0.00102   0.00270  -0.36850
   D16        1.65090  -0.00077   0.00174   0.00094   0.00268   1.65359
   D17        0.34952  -0.00008   0.00203   0.00127   0.00330   0.35282
   D18        2.37668  -0.00008   0.00197   0.00121   0.00318   2.37986
   D19       -1.77685  -0.00008   0.00198   0.00117   0.00315  -1.77369
   D20       -2.50125   0.00009   0.00059   0.00037   0.00096  -2.50028
   D21       -0.47409   0.00008   0.00052   0.00031   0.00084  -0.47325
   D22        1.65557   0.00009   0.00054   0.00028   0.00082   1.65638
   D23       -1.52654  -0.00368   0.00021   0.00026   0.00048  -1.52606
   D24        1.86779  -0.00698   0.00000   0.00000   0.00000   1.86779
   D25        2.57158   0.00031   0.00001   0.00024   0.00025   2.57183
   D26       -0.31727  -0.00299  -0.00020  -0.00002  -0.00023  -0.31750
   D27        0.58299   0.00019  -0.00010   0.00034   0.00024   0.58323
   D28       -2.30586  -0.00311  -0.00031   0.00007  -0.00024  -2.30610
   D29       -0.59495   0.00157   0.00137   0.00009   0.00145  -0.59350
   D30        2.98003   0.00158   0.00069   0.00064   0.00133   2.98136
   D31        2.79849  -0.00156   0.00115  -0.00015   0.00100   2.79949
   D32        0.09028  -0.00156   0.00048   0.00040   0.00088   0.09117
   D33        0.42175   0.00000   0.00220   0.00227   0.00447   0.42622
   D34        2.51417   0.00000   0.00187   0.00208   0.00395   2.51812
   D35       -1.68074   0.00000   0.00182   0.00205   0.00388  -1.67686
   D36        3.13971   0.00000   0.00286   0.00173   0.00459  -3.13888
   D37       -1.05105   0.00000   0.00253   0.00154   0.00407  -1.04698
   D38        1.03723   0.00000   0.00248   0.00152   0.00400   1.04122
   D39       -2.63591   0.00000   0.00159  -0.00043   0.00116  -2.63475
   D40       -0.53703   0.00000   0.00165  -0.00049   0.00116  -0.53587
   D41        1.55233   0.00000   0.00161  -0.00043   0.00118   1.55351
   D42        0.89502   0.00000   0.00098   0.00002   0.00100   0.89602
   D43        2.99389   0.00000   0.00105  -0.00004   0.00100   2.99489
   D44       -1.19993   0.00000   0.00101   0.00002   0.00103  -1.19891
   D45        0.99225   0.00000   0.00006  -0.00005   0.00001   0.99226
   D46       -1.06856   0.00000   0.00011   0.00006   0.00017  -1.06839
   D47        3.10711   0.00000   0.00003   0.00002   0.00005   3.10716
   D48       -1.15647   0.00000   0.00005  -0.00007  -0.00002  -1.15649
   D49        3.06591   0.00001   0.00010   0.00004   0.00014   3.06605
   D50        0.95839   0.00000   0.00002   0.00000   0.00002   0.95841
   D51        3.12559  -0.00001   0.00004  -0.00019  -0.00015   3.12544
   D52        1.06479   0.00000   0.00009  -0.00008   0.00001   1.06479
   D53       -1.04273  -0.00001   0.00001  -0.00012  -0.00011  -1.04284
   D54       -3.13919   0.00000   0.00026   0.00006   0.00032  -3.13887
   D55       -1.03716   0.00000   0.00029   0.00010   0.00039  -1.03676
   D56        1.03324   0.00001   0.00022   0.00012   0.00034   1.03358
   D57       -3.13766  -0.00002  -0.00031  -0.00109  -0.00140  -3.13906
   D58       -1.05655  -0.00002  -0.00030  -0.00110  -0.00139  -1.05794
   D59        1.06372  -0.00002  -0.00031  -0.00107  -0.00138   1.06234
         Item               Value     Threshold  Converged?
 Maximum Force            0.000059     0.000450     YES
 RMS     Force            0.000011     0.000300     YES
 Maximum Displacement     0.017853     0.001800     NO 
 RMS     Displacement     0.003316     0.001200     NO 
 Predicted change in Energy=-1.223754D-07
 GradGradGradGradGradGradGradGradGradGradGradGradGradGradGradGradGradGrad

                          Input orientation:                          
 ---------------------------------------------------------------------
 Center     Atomic      Atomic             Coordinates (Angstroms)
 Number     Number       Type             X           Y           Z
 ---------------------------------------------------------------------
      1          6           0        1.129980    3.087214   -0.500878
      2          6           0       -0.044759    2.220740   -0.050483
      3          8           0       -1.187470    2.634035   -0.142042
      4          7           0        0.250144    0.962191    0.453699
      5          6           0       -0.810352    0.102212    1.018607
      6          6           0       -2.135022   -0.132068    0.241219
      7          8           0       -3.078591    0.629968    0.361648
      8          7           0       -2.302262   -1.383624   -0.335230
      9          6           0       -1.224391   -2.186195   -0.889925
     10          6           0       -3.619157   -1.684163   -0.886917
     11          1           0        0.709528    3.898203   -1.094909
     12          1           0        1.871140    2.547650   -1.096614
     13          1           0        1.645439    3.527188    0.360201
     14          1           0       -0.347812   -0.852640    1.265063
     15          1           0       -1.167235    0.547046    1.956542
     16          1           0       -0.266485   -1.925637   -0.444532
     17          1           0       -1.411733   -3.249051   -0.698322
     18          1           0       -1.137502   -2.049776   -1.977918
     19          1           0       -3.794194   -2.763046   -0.825746
     20          1           0       -4.372534   -1.148472   -0.312723
     21          1           0       -3.701820   -1.375986   -1.938543
     22          6           0        1.622006    0.575992    0.799386
     23          1           0        2.240861    1.461691    0.947431
     24          1           0        1.618013    0.048187    1.758843
     25          6           0        2.300066   -0.307952   -0.249932
     26          1           0        2.300273    0.198339   -1.229608
     27          1           0        1.750872   -1.255573   -0.379378
     28          8           0        3.615483   -0.554107    0.199886
     29          6           0        4.362055   -1.363727   -0.685874
     30          1           0        5.353840   -1.494315   -0.247532
     31          1           0        3.899791   -2.353927   -0.821860
     32          1           0        4.468926   -0.894368   -1.676035
 ---------------------------------------------------------------------
                    Distance matrix (angstroms):
                    1          2          3          4          5
     1  C    0.000000
     2  C    1.527628   0.000000
     3  O    2.388453   1.218599   0.000000
     4  N    2.490191   1.387484   2.284010   0.000000
     5  C    3.870913   2.493441   2.810596   1.477613   0.000000
     6  C    4.644860   3.160695   2.948910   2.632787   1.553695
     7  O    4.949149   3.450296   2.801129   3.346539   2.419716
     8  N    5.638805   4.262492   4.173927   3.555283   2.503274
     9  C    5.788201   4.638671   4.878043   3.727186   3.008443
    10  C    6.743098   5.359497   5.011465   4.875648   3.835563
    11  H    1.089659   2.115102   2.470765   3.351028   4.602884
    12  H    1.093320   2.207245   3.205271   2.746776   4.200563
    13  H    1.095778   2.175370   3.012531   2.921437   4.265544
    14  H    4.563427   3.356808   3.852515   2.075927   1.089232
    15  H    4.215277   2.844178   2.959727   2.107094   1.097709
    16  H    5.204034   4.170956   4.661579   3.068106   2.559051
    17  H    6.829901   5.675115   5.913581   4.671568   3.813197
    18  H    5.806185   4.811070   5.031005   4.112209   3.703679
    19  H    7.653664   6.284697   6.032490   5.645444   4.529310
    20  H    6.946517   5.490901   4.947840   5.139207   4.003222
    21  H    6.733003   5.465830   5.062572   5.177636   4.392083
    22  C    2.870368   2.491100   3.607629   1.466511   2.487749
    23  H    2.444173   2.606923   3.783490   2.110978   3.341131
    24  H    3.818403   3.280009   4.262711   2.099969   2.539257
    25  C    3.599893   3.454311   4.563971   2.512079   3.384100
    26  H    3.200973   3.313550   4.390873   2.760439   3.839232
    27  H    4.388629   3.926475   4.880494   2.804403   3.218355
    28  O    4.464080   4.599982   5.774904   3.699877   4.548525
    29  C    5.503763   5.715955   6.861128   4.859664   5.639861
    30  H    6.236633   6.556320   7.735835   5.707352   6.492248
    31  H    6.113992   6.089506   7.156965   5.093488   5.621867
    32  H    5.327528   5.720111   6.840875   5.077470   6.010412
                    6          7          8          9         10
     6  C    0.000000
     7  O    1.218821   0.000000
     8  N    1.388040   2.267792   0.000000
     9  C    2.515586   3.596563   1.453826   0.000000
    10  C    2.425768   2.684461   1.459074   2.446825   0.000000
    11  H    5.110752   5.210831   6.127454   6.387641   7.067078
    12  H    5.002002   5.504895   5.783762   5.659888   6.935098
    13  H    5.262717   5.541691   6.339088   6.514712   7.511954
    14  H    2.182109   3.235960   2.581231   2.681554   4.003018
    15  H    2.083300   2.490751   3.204371   3.946675   4.367548
    16  H    2.679286   3.884454   2.109529   1.088049   3.390343
    17  H    3.334886   4.353015   2.098736   1.096116   2.712409
    18  H    3.097937   4.052458   2.121048   1.099949   2.735428
    19  H    3.288360   3.665315   2.090280   2.634532   1.094700
    20  H    2.519204   2.300416   2.083706   3.364645   1.088228
    21  H    2.958640   3.114987   2.128246   2.809571   1.098964
    22  C    3.863698   4.721243   4.530709   4.311082   5.951615
    23  H    4.710325   5.415854   5.511897   5.356391   6.899352
    24  H    4.052277   4.934441   4.669452   4.481930   6.117928
    25  C    4.465666   5.493967   4.727131   4.044650   6.110394
    26  H    4.684479   5.625884   4.948317   4.269033   6.221005
    27  H    4.092380   5.237183   4.055396   3.158940   5.410961
    28  O    5.766120   6.799913   5.999513   5.222622   7.402580
    29  C    6.677462   7.774017   6.673565   5.650352   7.990173
    30  H    7.627428   8.717200   7.657404   6.645638   8.997752
    31  H    6.518111   7.681285   6.296329   5.127379   7.549000
    32  H    6.918749   7.964971   6.919979   5.890725   8.164776
                   11         12         13         14         15
    11  H    0.000000
    12  H    1.781387   0.000000
    13  H    1.769442   1.769956   0.000000
    14  H    5.409061   4.697152   4.896398   0.000000
    15  H    4.905491   4.749305   4.397804   1.763156   0.000000
    16  H    5.940766   5.000495   5.834067   2.020062   3.562397
    17  H    7.465941   6.673653   7.508940   3.275606   4.638797
    18  H    6.290443   5.564616   6.656882   3.545936   4.714270
    19  H    8.045383   7.769998   8.400185   4.460793   5.059520
    20  H    7.204727   7.297895   7.650530   4.333048   4.277649
    21  H    6.927393   6.867434   7.610421   4.667585   5.029300
    22  C    3.931674   2.746693   2.983788   2.477504   3.019886
    23  H    3.528842   2.343954   2.228372   3.486868   3.670150
    24  H    4.877691   3.803291   3.749719   2.218057   2.836469
    25  C    4.575537   3.009204   3.938158   3.098895   4.197824
    26  H    4.029591   2.391883   3.746669   3.786858   4.721945
    27  H    5.306391   3.872131   4.840753   2.696482   4.149856
    28  O    5.472123   3.787419   4.534726   4.114782   5.212751
    29  C    6.418425   4.655345   5.691689   5.123496   6.419227
    30  H    7.167073   5.402557   6.271927   5.933678   7.179800
    31  H    7.024348   5.311909   6.408345   4.965002   6.466059
    32  H    6.118784   4.351059   5.627477   5.643825   6.858542
                   16         17         18         19         20
    16  H    0.000000
    17  H    1.768454   0.000000
    18  H    1.767867   1.775057   0.000000
    19  H    3.645725   2.434863   2.982325   0.000000
    20  H    4.181028   3.650679   3.748420   1.790117   0.000000
    21  H    3.786253   3.207961   2.651654   1.780669   1.773389
    22  C    3.372221   5.106629   4.714123   6.566997   6.336014
    23  H    4.438281   6.183934   5.683432   7.577232   7.220660
    24  H    3.507446   5.107720   5.094869   6.623830   6.450584
    25  C    3.040059   4.756950   4.223359   6.595381   6.725623
    26  H    3.422845   5.093698   4.175199   6.787889   6.868838
    27  H    2.126725   3.752033   3.395407   5.763633   6.124705
    28  O    4.167259   5.774288   5.437897   7.799657   8.026484
    29  C    4.668766   6.073816   5.690797   8.276597   8.745206
    30  H    5.640293   7.003949   6.740942   9.253677   9.732739
    31  H    4.205195   5.387838   5.177190   7.704855   8.375184
    32  H    5.000423   6.409571   5.732201   8.514346   8.949558
                   21         22         23         24         25
    21  H    0.000000
    22  C    6.296793   0.000000
    23  H    7.190043   1.090579   0.000000
    24  H    6.633216   1.095057   1.744799   0.000000
    25  C    6.325721   1.530421   2.137479   2.151094   0.000000
    26  H    6.245495   2.172438   2.517754   3.069017   1.102768
    27  H    5.672507   2.181907   3.063337   2.507874   1.102886
    28  O    7.667548   2.368644   2.551833   2.604418   1.411825
    29  C    8.160601   3.671019   3.892318   3.936993   2.357224
    30  H    9.212953   4.394177   4.456068   4.512345   3.276126
    31  H    7.745182   4.049836   4.521215   4.199606   2.659368
    32  H    8.189136   4.049027   4.171074   4.562291   2.661129
                   26         27         28         29         30
    26  H    0.000000
    27  H    1.771608   0.000000
    28  O    2.083124   2.074699   0.000000
    29  C    2.643226   2.631334   1.413303   0.000000
    30  H    3.626821   3.613276   2.026342   1.092170   0.000000
    31  H    3.039537   2.453575   2.089055   1.101216   1.784109
    32  H    2.469081   3.033085   2.088833   1.100971   1.784274
                   31         32
    31  H    0.000000
    32  H    1.784332   0.000000
 Stoichiometry    C9H18N2O3
 Framework group  C1[X(C9H18N2O3)]
 Deg. of freedom    90
 Full point group                 C1      NOp   1
 Largest Abelian subgroup         C1      NOp   1
 Largest concise Abelian subgroup C1      NOp   1
                         Standard orientation:                         
 ---------------------------------------------------------------------
 Center     Atomic      Atomic             Coordinates (Angstroms)
 Number     Number       Type             X           Y           Z
 ---------------------------------------------------------------------
      1          6           0        1.367344    2.768698   -0.843875
      2          6           0        0.131472    2.077299   -0.270958
      3          8           0       -0.974652    2.566097   -0.421124
      4          7           0        0.328787    0.885445    0.411438
      5          6           0       -0.791241    0.207647    1.096614
      6          6           0       -2.140458   -0.026704    0.362679
      7          8           0       -3.016874    0.820260    0.371156
      8          7           0       -2.416923   -1.330613   -0.024676
      9          6           0       -1.415530   -2.291851   -0.456931
     10          6           0       -3.760935   -1.598093   -0.525657
     11          1           0        1.007132    3.516637   -1.549701
     12          1           0        2.054187    2.088676   -1.354917
     13          1           0        1.928037    3.285049   -0.056642
     14          1           0       -0.405298   -0.736182    1.479575
     15          1           0       -1.098512    0.812235    1.959760
     16          1           0       -0.433902   -2.049516   -0.055021
     17          1           0       -1.686776   -3.296307   -0.112019
     18          1           0       -1.331665   -2.322857   -1.553240
     19          1           0       -4.022895   -2.638346   -0.307444
     20          1           0       -4.460545   -0.924011   -0.035350
     21          1           0       -3.831516   -1.440430   -1.610960
     22          6           0        1.668738    0.441354    0.808894
     23          1           0        2.359850    1.284828    0.825568
     24          1           0        1.633808    0.060932    1.835154
     25          6           0        2.258719   -0.638956   -0.100524
     26          1           0        2.287856   -0.282371   -1.143643
     27          1           0        1.632197   -1.546541   -0.089803
     28          8           0        3.555210   -0.925153    0.379529
     29          6           0        4.221640   -1.914067   -0.378987
     30          1           0        5.204924   -2.061189    0.073055
     31          1           0        3.678181   -2.871783   -0.368575
     32          1           0        4.353917   -1.604254   -1.427155
 ---------------------------------------------------------------------
 Rotational constants (GHZ):      0.8333469      0.4042984      0.2957005
 Standard basis: 6-31G(d,p) (6D, 7F)
 There are   300 symmetry adapted basis functions of A   symmetry.
 Integral buffers will be    131072 words long.
 Raffenetti 2 integral format.
 Two-electron integral symmetry is turned on.
   300 basis functions,   518 primitive gaussians,   300 cartesian basis functions
    55 alpha electrons       55 beta electrons
       nuclear repulsion energy       962.9560288093 Hartrees.
 NAtoms=   32 NActive=   32 NUniq=   32 SFac= 1.00D+00 NAtFMM=   60 NAOKFM=F Big=F
 One-electron integrals computed using PRISM.
 NBasis=   300 RedAO= T  NBF=   300
 NBsUse=   300 1.00D-06 NBFU=   300
 Initial guess read from the read-write file.
 B after Tr=     0.000000    0.000000    0.000000
         Rot=    1.000000    0.000000    0.000000    0.000000 Ang=   0.00 deg.
 Initial guess orbital symmetries:
       Occupied  (A) (A) (A) (A) (A) (A) (A) (A) (A) (A) (A) (A)
                 (A) (A) (A) (A) (A) (A) (A) (A) (A) (A) (A) (A)
                 (A) (A) (A) (A) (A) (A) (A) (A) (A) (A) (A) (A)
                 (A) (A) (A) (A) (A) (A) (A) (A) (A) (A) (A) (A)
                 (A) (A) (A) (A) (A) (A) (A)
       Virtual   (A) (A) (A) (A) (A) (A) (A) (A) (A) (A) (A) (A)
                 (A) (A) (A) (A) (A) (A) (A) (A) (A) (A) (A) (A)
                 (A) (A) (A) (A) (A) (A) (A) (A) (A) (A) (A) (A)
                 (A) (A) (A) (A) (A) (A) (A) (A) (A) (A) (A) (A)
                 (A) (A) (A) (A) (A) (A) (A) (A) (A) (A) (A) (A)
                 (A) (A) (A) (A) (A) (A) (A) (A) (A) (A) (A) (A)
                 (A) (A) (A) (A) (A) (A) (A) (A) (A) (A) (A) (A)
                 (A) (A) (A) (A) (A) (A) (A) (A) (A) (A) (A) (A)
                 (A) (A) (A) (A) (A) (A) (A) (A) (A) (A) (A) (A)
                 (A) (A) (A) (A) (A) (A) (A) (A) (A) (A) (A) (A)
                 (A) (A) (A) (A) (A) (A) (A) (A) (A) (A) (A) (A)
                 (A) (A) (A) (A) (A) (A) (A) (A) (A) (A) (A) (A)
                 (A) (A) (A) (A) (A) (A) (A) (A) (A) (A) (A) (A)
                 (A) (A) (A) (A) (A) (A) (A) (A) (A) (A) (A) (A)
                 (A) (A) (A) (A) (A) (A) (A) (A) (A) (A) (A) (A)
                 (A) (A) (A) (A) (A) (A) (A) (A) (A) (A) (A) (A)
                 (A) (A) (A) (A) (A) (A) (A) (A) (A) (A) (A) (A)
                 (A) (A) (A) (A) (A) (A) (A) (A) (A) (A) (A) (A)
                 (A) (A) (A) (A) (A) (A) (A) (A) (A) (A) (A) (A)
                 (A) (A) (A) (A) (A) (A) (A) (A) (A) (A) (A) (A)
                 (A) (A) (A) (A) (A)
