 Entering Gaussian System, Link 0=/data/opt/apps/g09-C01/g09
 Initial command:
 /data/opt/apps/g09-C01/l1.exe /tmp/g09-tuu61186-1178319c21e64fea8x/Gau-1178461.inp -scrdir=/tmp/g09-tuu61186-1178319c21e64fea8x/
 Entering Link 1 = /data/opt/apps/g09-C01/l1.exe PID=   1178469.
  
 Copyright (c) 1988,1990,1992,1993,1995,1998,2003,2009,2011,
            Gaussian, Inc.  All Rights Reserved.
  
 This is part of the Gaussian(R) 09 program.  It is based on
 the Gaussian(R) 03 system (copyright 2003, Gaussian, Inc.),
 the Gaussian(R) 98 system (copyright 1998, Gaussian, Inc.),
 the Gaussian(R) 94 system (copyright 1995, Gaussian, Inc.),
 the Gaussian 92(TM) system (copyright 1992, Gaussian, Inc.),
 the Gaussian 90(TM) system (copyright 1990, Gaussian, Inc.),
 the Gaussian 88(TM) system (copyright 1988, Gaussian, Inc.),
 the Gaussian 86(TM) system (copyright 1986, Carnegie Mellon
 University), and the Gaussian 82(TM) system (copyright 1983,
 Carnegie Mellon University). Gaussian is a federally registered
 trademark of Gaussian, Inc.
  
 This software contains proprietary and confidential information,
 including trade secrets, belonging to Gaussian, Inc.
  
 This software is provided under written license and may be
 used, copied, transmitted, or stored only in accord with that
 written license.
  
 The following legend is applicable only to US Government
 contracts under FAR:
  
                    RESTRICTED RIGHTS LEGEND
  
 Use, reproduction and disclosure by the US Government is
 subject to restrictions as set forth in subparagraphs (a)
 and (c) of the Commercial Computer Software - Restricted
 Rights clause in FAR 52.227-19.
  
 Gaussian, Inc.
 340 Quinnipiac St., Bldg. 40, Wallingford CT 06492
  
  
 ---------------------------------------------------------------
 Warning -- This program may not be used in any manner that
 competes with the business of Gaussian, Inc. or will provide
 assistance to any competitor of Gaussian, Inc.  The licensee
 of this program is prohibited from giving any competitor of
 Gaussian, Inc. access to this program.  By using this program,
 the user acknowledges that Gaussian, Inc. is engaged in the
 business of creating and licensing software in the field of
 computational chemistry and represents and warrants to the
 licensee that it is not a competitor of Gaussian, Inc. and that
 it will not use this program in any manner prohibited above.
 ---------------------------------------------------------------
  

 Cite this work as:
 Gaussian 09, Revision C.01,
 M. J. Frisch, G. W. Trucks, H. B. Schlegel, G. E. Scuseria, 
 M. A. Robb, J. R. Cheeseman, G. Scalmani, V. Barone, B. Mennucci, 
 G. A. Petersson, H. Nakatsuji, M. Caricato, X. Li, H. P. Hratchian, 
 A. F. Izmaylov, J. Bloino, G. Zheng, J. L. Sonnenberg, M. Hada, 
 M. Ehara, K. Toyota, R. Fukuda, J. Hasegawa, M. Ishida, T. Nakajima, 
 Y. Honda, O. Kitao, H. Nakai, T. Vreven, J. A. Montgomery, Jr., 
 J. E. Peralta, F. Ogliaro, M. Bearpark, J. J. Heyd, E. Brothers, 
 K. N. Kudin, V. N. Staroverov, T. Keith, R. Kobayashi, J. Normand, 
 K. Raghavachari, A. Rendell, J. C. Burant, S. S. Iyengar, J. Tomasi, 
 M. Cossi, N. Rega, J. M. Millam, M. Klene, J. E. Knox, J. B. Cross, 
 V. Bakken, C. Adamo, J. Jaramillo, R. Gomperts, R. E. Stratmann, 
 O. Yazyev, A. J. Austin, R. Cammi, C. Pomelli, J. W. Ochterski, 
 R. L. Martin, K. Morokuma, V. G. Zakrzewski, G. A. Voth, 
 P. Salvador, J. J. Dannenberg, S. Dapprich, A. D. Daniels, 
 O. Farkas, J. B. Foresman, J. V. Ortiz, J. Cioslowski, 
 and D. J. Fox, Gaussian, Inc., Wallingford CT, 2010.
 
 ******************************************
 Gaussian 09:  EM64L-G09RevC.01 23-Sep-2011
                24-Apr-2026 
 ******************************************
 %nprocshared=8
 Will use up to    8 processors via shared memory.
 %mem=14GB
 -----------------------------------
 # opt=modredundant b3lyp/6-31g(d,p)
 -----------------------------------
 1/14=-1,18=120,19=15,26=3,38=1/1,3;
 2/9=110,12=2,17=6,18=5,40=1/2;
 3/5=1,6=6,7=101,11=2,16=1,25=1,30=1,71=1,74=-5/1,2,3;
 4//1;
 5/5=2,38=5/2;
 6/7=2,8=2,9=2,10=2,28=1/1;
 7//1,2,3,16;
 1/14=-1,18=20,19=15/3(2);
 2/9=110/2;
 99//99;
 2/9=110/2;
 3/5=1,6=6,7=101,11=2,16=1,25=1,30=1,71=1,74=-5/1,2,3;
 4/5=5,16=3/1;
 5/5=2,38=5/2;
 7//1,2,3,16;
 1/14=-1,18=20,19=15/3(-5);
 2/9=110/2;
 6/7=2,8=2,9=2,10=2,19=2,28=1/1;
 99/9=1/99;
 ---------------
 QM dihedral opt
 ---------------
 Charge =  0 Multiplicity = 1
 Symbolic Z-Matrix:
 C                     0.6944    2.84039   0.26015 
 C                    -0.11609   1.64545  -0.212 
 O                    -1.25352   1.7911   -0.6568 
 N                     0.45985   0.39639  -0.17129 
 C                    -0.44803  -0.72468  -0.43149 
 C                    -1.70296  -0.64626   0.45974 
 O                    -1.54743  -0.49015   1.66851 
 N                    -2.92225  -0.86715  -0.11787 
 C                    -3.15295  -0.72469  -1.55614 
 C                    -4.09616  -0.80815   0.74771 
 H                     0.15744   3.73683  -0.04838 
 H                     1.70443   2.85947  -0.15888 
 H                     0.77964   2.84424   1.35207 
 H                    -0.68631  -0.76343  -1.49552 
 H                     0.07226  -1.64973  -0.1718 
 H                    -2.67797  -1.52864  -2.12869 
 H                    -4.22706  -0.78851  -1.73874 
 H                    -2.79236   0.24399  -1.91503 
 H                    -4.82346  -1.56443   0.43632 
 H                    -3.78031  -0.99768   1.77198 
 H                    -4.57303   0.17998   0.70686 
 C                     1.69098   0.09525   0.56003 
 H                     2.05247   0.98595   1.0726 
 H                     1.48109  -0.64932   1.33474 
 C                     2.79515  -0.41513  -0.3661 
 H                     3.02467   0.34699  -1.13026 
 H                     2.46318  -1.32035  -0.90383 
 O                     3.92394  -0.69215   0.43553 
 C                     5.02029  -1.1867   -0.30512 
 H                     5.83397  -1.36686   0.401 
 H                     4.77577  -2.13174  -0.81498 
 H                     5.36057  -0.46474  -1.06391 
 
 The following ModRedundant input section has been read:
 D       2       4       5       6 F                                           
 D       4       5       6       8 S  36 10.000                                

 GradGradGradGradGradGradGradGradGradGradGradGradGradGradGradGradGradGrad
 Berny optimization.
 Initialization pass.
                           ----------------------------
                           !    Initial Parameters    !
                           ! (Angstroms and Degrees)  !
 --------------------------                            --------------------------
 ! Name  Definition              Value          Derivative Info.                !
 --------------------------------------------------------------------------------
 ! R1    R(1,2)                  1.5191         estimate D2E/DX2                !
 ! R2    R(1,11)                 1.0896         estimate D2E/DX2                !
 ! R3    R(1,12)                 1.0937         estimate D2E/DX2                !
 ! R4    R(1,13)                 1.0953         estimate D2E/DX2                !
 ! R5    R(2,3)                  1.23           estimate D2E/DX2                !
 ! R6    R(2,4)                  1.3761         estimate D2E/DX2                !
 ! R7    R(4,5)                  1.4659         estimate D2E/DX2                !
 ! R8    R(4,22)                 1.4633         estimate D2E/DX2                !
 ! R9    R(5,6)                  1.5412         estimate D2E/DX2                !
 ! R10   R(5,14)                 1.0911         estimate D2E/DX2                !
 ! R11   R(5,15)                 1.0926         estimate D2E/DX2                !
 ! R12   R(6,7)                  1.2287         estimate D2E/DX2                !
 ! R13   R(6,8)                  1.3672         estimate D2E/DX2                !
 ! R14   R(8,9)                  1.4636         estimate D2E/DX2                !
 ! R15   R(8,10)                 1.4597         estimate D2E/DX2                !
 ! R16   R(9,16)                 1.0953         estimate D2E/DX2                !
 ! R17   R(9,17)                 1.0914         estimate D2E/DX2                !
 ! R18   R(9,18)                 1.0942         estimate D2E/DX2                !
 ! R19   R(10,19)                1.0945         estimate D2E/DX2                !
 ! R20   R(10,20)                1.0885         estimate D2E/DX2                !
 ! R21   R(10,21)                1.0979         estimate D2E/DX2                !
 ! R22   R(22,23)                1.0894         estimate D2E/DX2                !
 ! R23   R(22,24)                1.0948         estimate D2E/DX2                !
 ! R24   R(22,25)                1.5289         estimate D2E/DX2                !
 ! R25   R(25,26)                1.1034         estimate D2E/DX2                !
 ! R26   R(25,27)                1.104          estimate D2E/DX2                !
 ! R27   R(25,28)                1.4119         estimate D2E/DX2                !
 ! R28   R(28,29)                1.4125         estimate D2E/DX2                !
 ! R29   R(29,30)                1.0923         estimate D2E/DX2                !
 ! R30   R(29,31)                1.1013         estimate D2E/DX2                !
 ! R31   R(29,32)                1.1013         estimate D2E/DX2                !
 ! A1    A(2,1,11)             107.2317         estimate D2E/DX2                !
 ! A2    A(2,1,12)             112.7909         estimate D2E/DX2                !
 ! A3    A(2,1,13)             110.7413         estimate D2E/DX2                !
 ! A4    A(11,1,12)            109.4081         estimate D2E/DX2                !
 ! A5    A(11,1,13)            108.5282         estimate D2E/DX2                !
 ! A6    A(12,1,13)            108.0615         estimate D2E/DX2                !
 ! A7    A(1,2,3)              120.8399         estimate D2E/DX2                !
 ! A8    A(1,2,4)              118.7845         estimate D2E/DX2                !
 ! A9    A(3,2,4)              120.3473         estimate D2E/DX2                !
 ! A10   A(2,4,5)              115.4509         estimate D2E/DX2                !
 ! A11   A(2,4,22)             123.6229         estimate D2E/DX2                !
 ! A12   A(5,4,22)             116.8986         estimate D2E/DX2                !
 ! A13   A(4,5,6)              111.2691         estimate D2E/DX2                !
 ! A14   A(4,5,14)             109.6045         estimate D2E/DX2                !
 ! A15   A(4,5,15)             108.0822         estimate D2E/DX2                !
 ! A16   A(6,5,14)             112.8248         estimate D2E/DX2                !
 ! A17   A(6,5,15)             107.0596         estimate D2E/DX2                !
 ! A18   A(14,5,15)            107.801          estimate D2E/DX2                !
 ! A19   A(5,6,7)              118.1832         estimate D2E/DX2                !
 ! A20   A(5,6,8)              118.2718         estimate D2E/DX2                !
 ! A21   A(7,6,8)              123.3027         estimate D2E/DX2                !
 ! A22   A(6,8,9)              122.6859         estimate D2E/DX2                !
 ! A23   A(6,8,10)             117.3977         estimate D2E/DX2                !
 ! A24   A(9,8,10)             116.8734         estimate D2E/DX2                !
 ! A25   A(8,9,16)             111.9549         estimate D2E/DX2                !
 ! A26   A(8,9,17)             108.291          estimate D2E/DX2                !
 ! A27   A(8,9,18)             110.8884         estimate D2E/DX2                !
 ! A28   A(16,9,17)            107.2415         estimate D2E/DX2                !
 ! A29   A(16,9,18)            109.6            estimate D2E/DX2                !
 ! A30   A(17,9,18)            108.7379         estimate D2E/DX2                !
 ! A31   A(8,10,19)            109.7415         estimate D2E/DX2                !
 ! A32   A(8,10,20)            108.5183         estimate D2E/DX2                !
 ! A33   A(8,10,21)            111.3219         estimate D2E/DX2                !
 ! A34   A(19,10,20)           109.8907         estimate D2E/DX2                !
 ! A35   A(19,10,21)           108.8245         estimate D2E/DX2                !
 ! A36   A(20,10,21)           108.5263         estimate D2E/DX2                !
 ! A37   A(4,22,23)            110.2478         estimate D2E/DX2                !
 ! A38   A(4,22,24)            109.4093         estimate D2E/DX2                !
 ! A39   A(4,22,25)            111.9373         estimate D2E/DX2                !
 ! A40   A(23,22,24)           106.6616         estimate D2E/DX2                !
 ! A41   A(23,22,25)           108.5612         estimate D2E/DX2                !
 ! A42   A(24,22,25)           109.8814         estimate D2E/DX2                !
 ! A43   A(22,25,26)           109.8264         estimate D2E/DX2                !
 ! A44   A(22,25,27)           110.5859         estimate D2E/DX2                !
 ! A45   A(22,25,28)           107.3953         estimate D2E/DX2                !
 ! A46   A(26,25,27)           106.9525         estimate D2E/DX2                !
 ! A47   A(26,25,28)           111.2491         estimate D2E/DX2                !
 ! A48   A(27,25,28)           110.8596         estimate D2E/DX2                !
 ! A49   A(25,28,29)           113.0491         estimate D2E/DX2                !
 ! A50   A(28,29,30)           107.2761         estimate D2E/DX2                !
 ! A51   A(28,29,31)           111.7694         estimate D2E/DX2                !
 ! A52   A(28,29,32)           111.8141         estimate D2E/DX2                !
 ! A53   A(30,29,31)           108.8529         estimate D2E/DX2                !
 ! A54   A(30,29,32)           108.8667         estimate D2E/DX2                !
 ! A55   A(31,29,32)           108.19           estimate D2E/DX2                !
 ! D1    D(11,1,2,3)           -10.0625         estimate D2E/DX2                !
 ! D2    D(11,1,2,4)           168.0101         estimate D2E/DX2                !
 ! D3    D(12,1,2,3)          -130.573          estimate D2E/DX2                !
 ! D4    D(12,1,2,4)            47.4997         estimate D2E/DX2                !
 ! D5    D(13,1,2,3)           108.1808         estimate D2E/DX2                !
 ! D6    D(13,1,2,4)           -73.7466         estimate D2E/DX2                !
 ! D7    D(1,2,4,5)            170.3867         estimate D2E/DX2                !
 ! D8    D(1,2,4,22)            13.7253         estimate D2E/DX2                !
 ! D9    D(3,2,4,5)            -11.5309         estimate D2E/DX2                !
 ! D10   D(3,2,4,22)          -168.1923         estimate D2E/DX2                !
 ! D11   D(2,4,5,6)            -51.3302         Frozen                          !
 ! D12   D(2,4,5,14)            74.1575         estimate D2E/DX2                !
 ! D13   D(2,4,5,15)          -168.6051         estimate D2E/DX2                !
 ! D14   D(22,4,5,6)           106.96           estimate D2E/DX2                !
 ! D15   D(22,4,5,14)         -127.5523         estimate D2E/DX2                !
 ! D16   D(22,4,5,15)          -10.315          estimate D2E/DX2                !
 ! D17   D(2,4,22,23)            1.4388         estimate D2E/DX2                !
 ! D18   D(2,4,22,24)          118.4385         estimate D2E/DX2                !
 ! D19   D(2,4,22,25)         -119.5143         estimate D2E/DX2                !
 ! D20   D(5,4,22,23)         -154.9133         estimate D2E/DX2                !
 ! D21   D(5,4,22,24)          -37.9135         estimate D2E/DX2                !
 ! D22   D(5,4,22,25)           84.1337         estimate D2E/DX2                !
 ! D23   D(4,5,6,7)            -50.587          estimate D2E/DX2                !
 ! D24   D(4,5,6,8)            134.8786         Scan                            !
 ! D25   D(14,5,6,7)          -174.2611         estimate D2E/DX2                !
 ! D26   D(14,5,6,8)            11.2045         estimate D2E/DX2                !
 ! D27   D(15,5,6,7)            67.3078         estimate D2E/DX2                !
 ! D28   D(15,5,6,8)          -107.2266         estimate D2E/DX2                !
 ! D29   D(5,6,8,9)            -21.27           estimate D2E/DX2                !
 ! D30   D(5,6,8,10)           179.0969         estimate D2E/DX2                !
 ! D31   D(7,6,8,9)            164.4952         estimate D2E/DX2                !
 ! D32   D(7,6,8,10)             4.8621         estimate D2E/DX2                !
 ! D33   D(6,8,9,16)            71.3822         estimate D2E/DX2                !
 ! D34   D(6,8,9,17)          -170.5947         estimate D2E/DX2                !
 ! D35   D(6,8,9,18)           -51.3671         estimate D2E/DX2                !
 ! D36   D(10,8,9,16)         -128.8853         estimate D2E/DX2                !
 ! D37   D(10,8,9,17)          -10.8621         estimate D2E/DX2                !
 ! D38   D(10,8,9,18)          108.3654         estimate D2E/DX2                !
 ! D39   D(6,8,10,19)         -143.1921         estimate D2E/DX2                !
 ! D40   D(6,8,10,20)          -23.0985         estimate D2E/DX2                !
 ! D41   D(6,8,10,21)           96.2716         estimate D2E/DX2                !
 ! D42   D(9,8,10,19)           55.9784         estimate D2E/DX2                !
 ! D43   D(9,8,10,20)          176.072          estimate D2E/DX2                !
 ! D44   D(9,8,10,21)          -64.5579         estimate D2E/DX2                !
 ! D45   D(4,22,25,26)          59.7213         estimate D2E/DX2                !
 ! D46   D(4,22,25,27)         -58.0867         estimate D2E/DX2                !
 ! D47   D(4,22,25,28)        -179.1689         estimate D2E/DX2                !
 ! D48   D(23,22,25,26)        -62.2036         estimate D2E/DX2                !
 ! D49   D(23,22,25,27)        179.9885         estimate D2E/DX2                !
 ! D50   D(23,22,25,28)         58.9063         estimate D2E/DX2                !
 ! D51   D(24,22,25,26)       -178.5022         estimate D2E/DX2                !
 ! D52   D(24,22,25,27)         63.6899         estimate D2E/DX2                !
 ! D53   D(24,22,25,28)        -57.3923         estimate D2E/DX2                !
 ! D54   D(22,25,28,29)        179.4701         estimate D2E/DX2                !
 ! D55   D(26,25,28,29)        -60.3193         estimate D2E/DX2                !
 ! D56   D(27,25,28,29)         58.5602         estimate D2E/DX2                !
 ! D57   D(25,28,29,30)        179.9754         estimate D2E/DX2                !
 ! D58   D(25,28,29,31)        -60.7764         estimate D2E/DX2                !
 ! D59   D(25,28,29,32)         60.6842         estimate D2E/DX2                !
 --------------------------------------------------------------------------------
 Trust Radius=3.00D-01 FncErr=1.00D-07 GrdErr=1.00D-06
 Number of optimizations in scan=  37
 Number of steps in this run=    155 maximum allowed number of steps=    192.
 GradGradGradGradGradGradGradGradGradGradGradGradGradGradGradGradGradGrad

                          Input orientation:                          
 ---------------------------------------------------------------------
 Center     Atomic      Atomic             Coordinates (Angstroms)
 Number     Number       Type             X           Y           Z
 ---------------------------------------------------------------------
      1          6           0        0.694403    2.840390    0.260149
      2          6           0       -0.116085    1.645450   -0.212001
      3          8           0       -1.253522    1.791099   -0.656795
      4          7           0        0.459847    0.396386   -0.171294
      5          6           0       -0.448026   -0.724680   -0.431489
      6          6           0       -1.702957   -0.646260    0.459742
      7          8           0       -1.547431   -0.490152    1.668506
      8          7           0       -2.922249   -0.867149   -0.117874
      9          6           0       -3.152948   -0.724690   -1.556144
     10          6           0       -4.096156   -0.808152    0.747708
     11          1           0        0.157435    3.736834   -0.048380
     12          1           0        1.704429    2.859471   -0.158875
     13          1           0        0.779642    2.844240    1.352074
     14          1           0       -0.686311   -0.763425   -1.495515
     15          1           0        0.072256   -1.649726   -0.171801
     16          1           0       -2.677970   -1.528639   -2.128693
     17          1           0       -4.227056   -0.788513   -1.738735
     18          1           0       -2.792362    0.243994   -1.915026
     19          1           0       -4.823463   -1.564428    0.436322
     20          1           0       -3.780314   -0.997678    1.771982
     21          1           0       -4.573031    0.179981    0.706862
     22          6           0        1.690978    0.095252    0.560026
     23          1           0        2.052467    0.985946    1.072599
     24          1           0        1.481085   -0.649321    1.334744
     25          6           0        2.795151   -0.415134   -0.366101
     26          1           0        3.024666    0.346992   -1.130257
     27          1           0        2.463181   -1.320346   -0.903825
     28          8           0        3.923944   -0.692145    0.435533
     29          6           0        5.020292   -1.186695   -0.305116
     30          1           0        5.833972   -1.366858    0.400995
     31          1           0        4.775769   -2.131738   -0.814977
     32          1           0        5.360575   -0.464739   -1.063913
 ---------------------------------------------------------------------
                    Distance matrix (angstroms):
                    1          2          3          4          5
     1  C    0.000000
     2  C    1.519111   0.000000
     3  O    2.395039   1.229967   0.000000
     4  N    2.492853   1.376051   2.261983   0.000000
     5  C    3.806998   2.403305   2.651175   1.465853   0.000000
     6  C    4.236024   2.867287   2.718339   2.482547   1.541199
     7  O    4.254621   3.185256   3.270705   2.863560   2.381947
     8  N    5.193161   3.767834   3.184551   3.610810   2.498086
     9  C    5.550750   4.080052   3.278085   4.028264   2.929412
    10  C    6.041443   4.773067   4.099915   4.801316   3.834883
    11  H    1.089558   2.115531   2.479285   3.356360   4.518679
    12  H    1.093663   2.188822   3.184151   2.759697   4.189692
    13  H    1.095254   2.164660   3.046049   2.900846   4.174381
    14  H    4.239836   2.788413   2.747867   2.100572   1.091069
    15  H    4.553547   3.300799   3.719164   2.082499   1.092630
    16  H    6.013974   4.506862   3.900794   4.169296   2.915390
    17  H    6.433136   5.015494   4.082511   5.082117   3.999254
    18  H    4.861089   3.467972   2.518870   3.693330   2.938558
    19  H    7.062599   5.734374   5.019855   5.668100   4.539022
    20  H    6.086008   4.934459   4.478941   4.868131   4.004242
    21  H    5.918039   4.780824   3.933752   5.113497   4.373776
    22  C    2.935791   2.502922   3.609242   1.463282   2.496143
    23  H    2.437904   2.605333   3.816889   2.105063   3.382453
    24  H    3.735198   3.195207   4.171325   2.098709   2.616625
    25  C    3.924763   3.570021   4.619926   2.479951   3.258572
    26  H    3.685158   3.520441   4.540100   2.738676   3.700858
    27  H    4.668526   3.990887   4.853452   2.738086   3.008828
    28  O    4.789520   4.712270   5.845155   3.681454   4.457231
    29  C    5.937192   5.866181   6.953537   4.829256   5.489256
    30  H    6.643489   6.697234   7.830976   5.684871   6.369374
    31  H    6.521925   6.209748   7.194861   5.043106   5.423551
    32  H    5.869427   5.930637   7.000059   5.055239   5.848707
                    6          7          8          9         10
     6  C    0.000000
     7  O    1.228686   0.000000
     8  N    1.367152   2.285477   0.000000
     9  C    2.484436   3.609856   1.463604   0.000000
    10  C    2.415892   2.728551   1.459716   2.490852   0.000000
    11  H    4.788607   4.870490   5.539489   5.756491   6.275643
    12  H    4.927790   5.013371   5.941004   6.196183   6.922437
    13  H    4.375288   4.078427   5.444185   6.054771   6.121979
    14  H    2.206882   3.290476   2.628321   2.467686   4.081800
    15  H    2.134753   2.711960   3.095544   3.629606   4.350793
    16  H    2.903315   4.095765   2.130876   1.095331   3.286949
    17  H    3.350315   4.344963   2.082281   1.091385   2.489964
    18  H    2.760232   3.864004   2.116900   1.094151   3.145957
    19  H    3.252866   3.661247   2.099511   2.732344   1.094482
    20  H    2.482112   2.292173   2.079632   3.397725   1.088491
    21  H    2.996843   3.244702   2.121733   2.820685   1.097946
    22  C    3.475441   3.472567   4.761053   5.349215   5.860229
    23  H    4.140398   3.936145   5.440495   6.077245   6.413260
    24  H    3.302084   3.051007   4.641864   5.462342   5.610299
    25  C    4.579128   4.796173   5.740609   6.073871   6.991791
    26  H    5.085771   5.425676   6.153443   6.284329   7.454342
    27  H    4.435134   4.836436   5.461315   5.685176   6.783421
    28  O    5.627140   5.612216   6.870753   7.351887   8.027012
    29  C    6.788163   6.893137   7.951171   8.281327   9.184844
    30  H    7.571526   7.540577   8.785803   9.219951   9.951874
    31  H    6.767972   6.988945   7.832281   8.086635   9.105214
    32  H    7.228275   7.428816   8.346382   8.531702   9.634815
                   11         12         13         14         15
    11  H    0.000000
    12  H    1.781899   0.000000
    13  H    1.773453   1.771561   0.000000
    14  H    4.801920   4.541764   4.824213   0.000000
    15  H    5.388647   4.795520   4.797741   1.764418   0.000000
    16  H    6.331858   6.507005   6.572130   2.225572   3.377548
    17  H    6.523789   7.140466   6.914985   3.549177   4.656292
    18  H    4.938178   5.490530   5.494946   2.371989   3.851110
    19  H    7.290244   7.908130   7.188167   4.635691   4.934081
    20  H    6.421463   6.977694   5.977446   4.506025   4.364144
    21  H    5.966482   6.880092   6.013791   4.565859   5.069375
    22  C    3.997878   2.856205   3.002467   3.257925   2.490137
    23  H    3.523510   2.268866   2.269680   4.142030   3.523710
    24  H    4.785754   3.820000   3.563326   3.566650   2.292441
    25  C    4.929232   3.457695   4.199752   3.676610   2.996019
    26  H    4.569737   2.999860   4.175925   3.890731   3.690833
    27  H    5.623462   4.312949   5.026645   3.252623   2.522077
    28  O    5.834091   4.230076   4.820031   4.998848   4.015136
    29  C    6.924914   5.233335   6.080940   5.844786   4.971442
    30  H    7.646743   5.935355   6.647116   6.817255   5.797023
    31  H    7.507118   5.897098   6.739844   5.671837   4.771692
    32  H    6.764406   5.023631   6.145835   6.069623   5.492393
                   16         17         18         19         20
    16  H    0.000000
    17  H    1.760546   0.000000
    18  H    1.789125   1.776372   0.000000
    19  H    3.344207   2.385082   3.595080   0.000000
    20  H    4.088074   3.545203   4.013954   1.786996   0.000000
    21  H    3.814579   2.653041   3.170044   1.782939   1.774757
    22  C    5.380886   6.410029   5.123314   6.723673   5.709498
    23  H    6.240869   7.105260   5.740101   7.361227   6.200422
    24  H    5.483278   6.484483   5.442551   6.433654   5.291016
    25  C    5.856763   7.164840   5.835574   7.746486   6.938840
    26  H    6.085633   7.365262   5.870629   8.228051   7.519234
    27  H    5.289151   6.763076   5.575878   7.412877   6.800389
    28  O    7.131637   8.436559   7.177064   8.790791   7.825282
    29  C    7.918687   9.366283   8.104088   9.878863   9.044376
    30  H    8.881365  10.302292   9.075926  10.659325   9.718559
    31  H    7.592615   9.149232   8.008172   9.697053   9.010272
    32  H    8.178254   9.616802   8.227823  10.352519   9.585519
                   21         22         23         24         25
    21  H    0.000000
    22  C    6.266303   0.000000
    23  H    6.684352   1.089377   0.000000
    24  H    6.142825   1.094821   1.751941   0.000000
    25  C    7.469640   1.528857   2.141136   2.162056   0.000000
    26  H    7.818433   2.167753   2.491186   3.074331   1.103380
    27  H    7.372488   2.177860   3.064950   2.534951   1.103975
    28  O    8.545923   2.370998   2.593119   2.603454   1.411923
    29  C    9.742882   3.670993   3.927652   3.937499   2.355903
    30  H   10.525777   4.396300   4.504056   4.509365   3.275461
    31  H    9.749877   4.045498   4.549645   4.204022   2.659148
    32  H   10.110778   4.051754   4.196755   4.564873   2.659098
                   26         27         28         29         30
    26  H    0.000000
    27  H    1.773853   0.000000
    28  O    2.083316   2.079025   0.000000
    29  C    2.648693   2.629664   1.412487   0.000000
    30  H    3.629630   3.614824   2.025990   1.092303   0.000000
    31  H    3.051207   2.452410   2.088494   1.101297   1.784215
    32  H    2.473819   3.025324   2.089009   1.101266   1.784343
                   31         32
    31  H    0.000000
    32  H    1.784055   0.000000
 Stoichiometry    C9H18N2O3
 Framework group  C1[X(C9H18N2O3)]
 Deg. of freedom    90
 Full point group                 C1      NOp   1
 Largest Abelian subgroup         C1      NOp   1
 Largest concise Abelian subgroup C1      NOp   1
                         Standard orientation:                         
 ---------------------------------------------------------------------
 Center     Atomic      Atomic             Coordinates (Angstroms)
 Number     Number       Type             X           Y           Z
 ---------------------------------------------------------------------
      1          6           0       -0.694403    2.840390   -0.260149
      2          6           0        0.116085    1.645450    0.212001
      3          8           0        1.253522    1.791099    0.656795
      4          7           0       -0.459847    0.396386    0.171294
      5          6           0        0.448026   -0.724680    0.431489
      6          6           0        1.702957   -0.646260   -0.459742
      7          8           0        1.547431   -0.490152   -1.668506
      8          7           0        2.922249   -0.867149    0.117874
      9          6           0        3.152948   -0.724690    1.556144
     10          6           0        4.096156   -0.808152   -0.747708
     11          1           0       -0.157435    3.736834    0.048380
     12          1           0       -1.704429    2.859471    0.158875
     13          1           0       -0.779642    2.844240   -1.352074
     14          1           0        0.686311   -0.763425    1.495515
     15          1           0       -0.072256   -1.649726    0.171801
     16          1           0        2.677970   -1.528639    2.128693
     17          1           0        4.227056   -0.788513    1.738735
     18          1           0        2.792362    0.243994    1.915026
     19          1           0        4.823463   -1.564428   -0.436322
     20          1           0        3.780314   -0.997678   -1.771982
     21          1           0        4.573031    0.179981   -0.706862
     22          6           0       -1.690978    0.095252   -0.560026
     23          1           0       -2.052467    0.985946   -1.072599
     24          1           0       -1.481085   -0.649321   -1.334744
     25          6           0       -2.795151   -0.415134    0.366101
     26          1           0       -3.024666    0.346992    1.130257
     27          1           0       -2.463181   -1.320346    0.903825
     28          8           0       -3.923944   -0.692145   -0.435533
     29          6           0       -5.020292   -1.186695    0.305116
     30          1           0       -5.833972   -1.366858   -0.400995
     31          1           0       -4.775769   -2.131738    0.814977
     32          1           0       -5.360575   -0.464739    1.063913
 ---------------------------------------------------------------------
 Rotational constants (GHZ):      1.1770405      0.3240005      0.2920040
 Standard basis: 6-31G(d,p) (6D, 7F)
 There are   300 symmetry adapted basis functions of A   symmetry.
 Integral buffers will be    131072 words long.
 Raffenetti 2 integral format.
 Two-electron integral symmetry is turned on.
   300 basis functions,   518 primitive gaussians,   300 cartesian basis functions
    55 alpha electrons       55 beta electrons
       nuclear repulsion energy       968.0898349991 Hartrees.
 NAtoms=   32 NActive=   32 NUniq=   32 SFac= 1.00D+00 NAtFMM=   60 NAOKFM=F Big=F
 One-electron integrals computed using PRISM.
 NBasis=   300 RedAO= T  NBF=   300
 NBsUse=   300 1.00D-06 NBFU=   300
 Harris functional with IExCor=  402 diagonalized for initial guess.
 ExpMin= 1.61D-01 ExpMax= 5.48D+03 ExpMxC= 8.25D+02 IAcc=1 IRadAn=         1 AccDes= 0.00D+00
 HarFok:  IExCor=  402 AccDes= 0.00D+00 IRadAn=         1 IDoV= 1
 ScaDFX=  1.000000  1.000000  1.000000  1.000000
 FoFCou: FMM=F IPFlag=           0 FMFlag=      100000 FMFlg1=           0
         NFxFlg=           0 DoJE=T BraDBF=F KetDBF=T FulRan=T
         Omega=  0.000000  0.000000  1.000000  0.000000  0.000000 ICntrl=     500 IOpCl=  0
         NMat0=    1 NMatS0=    1 NMatT0=    0 NMatD0=    1 NMtDS0=    0 NMtDT0=    0
         I1Cent=           4 NGrid=           0.
 Petite list used in FoFCou.
 Initial guess orbital symmetries:
       Occupied  (A) (A) (A) (A) (A) (A) (A) (A) (A) (A) (A) (A)
                 (A) (A) (A) (A) (A) (A) (A) (A) (A) (A) (A) (A)
                 (A) (A) (A) (A) (A) (A) (A) (A) (A) (A) (A) (A)
                 (A) (A) (A) (A) (A) (A) (A) (A) (A) (A) (A) (A)
                 (A) (A) (A) (A) (A) (A) (A)
       Virtual   (A) (A) (A) (A) (A) (A) (A) (A) (A) (A) (A) (A)
                 (A) (A) (A) (A) (A) (A) (A) (A) (A) (A) (A) (A)
                 (A) (A) (A) (A) (A) (A) (A) (A) (A) (A) (A) (A)
                 (A) (A) (A) (A) (A) (A) (A) (A) (A) (A) (A) (A)
                 (A) (A) (A) (A) (A) (A) (A) (A) (A) (A) (A) (A)
                 (A) (A) (A) (A) (A) (A) (A) (A) (A) (A) (A) (A)
                 (A) (A) (A) (A) (A) (A) (A) (A) (A) (A) (A) (A)
                 (A) (A) (A) (A) (A) (A) (A) (A) (A) (A) (A) (A)
                 (A) (A) (A) (A) (A) (A) (A) (A) (A) (A) (A) (A)
                 (A) (A) (A) (A) (A) (A) (A) (A) (A) (A) (A) (A)
                 (A) (A) (A) (A) (A) (A) (A) (A) (A) (A) (A) (A)
                 (A) (A) (A) (A) (A) (A) (A) (A) (A) (A) (A) (A)
                 (A) (A) (A) (A) (A) (A) (A) (A) (A) (A) (A) (A)
                 (A) (A) (A) (A) (A) (A) (A) (A) (A) (A) (A) (A)
                 (A) (A) (A) (A) (A) (A) (A) (A) (A) (A) (A) (A)
                 (A) (A) (A) (A) (A) (A) (A) (A) (A) (A) (A) (A)
                 (A) (A) (A) (A) (A) (A) (A) (A) (A) (A) (A) (A)
                 (A) (A) (A) (A) (A) (A) (A) (A) (A) (A) (A) (A)
                 (A) (A) (A) (A) (A) (A) (A) (A) (A) (A) (A) (A)
                 (A) (A) (A) (A) (A) (A) (A) (A) (A) (A) (A) (A)
                 (A) (A) (A) (A) (A)
 The electronic state of the initial guess is 1-A.
 Requested convergence on RMS density matrix=1.00D-08 within 128 cycles.
 Requested convergence on MAX density matrix=1.00D-06.
 Requested convergence on             energy=1.00D-06.
 No special actions if energy rises.
 Keep R1 ints in memory in canonical form, NReq=1033484811.
 Integral accuracy reduced to 1.0D-05 until final iterations.
 Initial convergence to 1.0D-05 achieved.  Increase integral accuracy.
 SCF Done:  E(RB3LYP) =  -688.994180197     A.U. after   14 cycles
             Convg  =    0.8153D-08             -V/T =  2.0093

 **********************************************************************

            Population analysis using the SCF density.

 **********************************************************************

 Orbital symmetries:
       Occupied  (A) (A) (A) (A) (A) (A) (A) (A) (A) (A) (A) (A)
                 (A) (A) (A) (A) (A) (A) (A) (A) (A) (A) (A) (A)
                 (A) (A) (A) (A) (A) (A) (A) (A) (A) (A) (A) (A)
                 (A) (A) (A) (A) (A) (A) (A) (A) (A) (A) (A) (A)
                 (A) (A) (A) (A) (A) (A) (A)
       Virtual   (A) (A) (A) (A) (A) (A) (A) (A) (A) (A) (A) (A)
                 (A) (A) (A) (A) (A) (A) (A) (A) (A) (A) (A) (A)
                 (A) (A) (A) (A) (A) (A) (A) (A) (A) (A) (A) (A)
                 (A) (A) (A) (A) (A) (A) (A) (A) (A) (A) (A) (A)
                 (A) (A) (A) (A) (A) (A) (A) (A) (A) (A) (A) (A)
                 (A) (A) (A) (A) (A) (A) (A) (A) (A) (A) (A) (A)
                 (A) (A) (A) (A) (A) (A) (A) (A) (A) (A) (A) (A)
                 (A) (A) (A) (A) (A) (A) (A) (A) (A) (A) (A) (A)
                 (A) (A) (A) (A) (A) (A) (A) (A) (A) (A) (A) (A)
                 (A) (A) (A) (A) (A) (A) (A) (A) (A) (A) (A) (A)
                 (A) (A) (A) (A) (A) (A) (A) (A) (A) (A) (A) (A)
                 (A) (A) (A) (A) (A) (A) (A) (A) (A) (A) (A) (A)
                 (A) (A) (A) (A) (A) (A) (A) (A) (A) (A) (A) (A)
                 (A) (A) (A) (A) (A) (A) (A) (A) (A) (A) (A) (A)
                 (A) (A) (A) (A) (A) (A) (A) (A) (A) (A) (A) (A)
                 (A) (A) (A) (A) (A) (A) (A) (A) (A) (A) (A) (A)
                 (A) (A) (A) (A) (A) (A) (A) (A) (A) (A) (A) (A)
                 (A) (A) (A) (A) (A) (A) (A) (A) (A) (A) (A) (A)
                 (A) (A) (A) (A) (A) (A) (A) (A) (A) (A) (A) (A)
                 (A) (A) (A) (A) (A) (A) (A) (A) (A) (A) (A) (A)
                 (A) (A) (A) (A) (A)
 The electronic state is 1-A.
 Alpha  occ. eigenvalues --  -19.15647 -19.11069 -19.09756 -14.36434 -14.35557
 Alpha  occ. eigenvalues --  -10.28434 -10.27407 -10.23962 -10.23407 -10.22568
 Alpha  occ. eigenvalues --  -10.22373 -10.21388 -10.20436 -10.18922  -1.04065
 Alpha  occ. eigenvalues --   -1.03376  -1.01584  -0.93073  -0.92051  -0.77081
 Alpha  occ. eigenvalues --   -0.75456  -0.72049  -0.70697  -0.68189  -0.66848
 Alpha  occ. eigenvalues --   -0.62259  -0.56213  -0.52429  -0.50727  -0.50034
 Alpha  occ. eigenvalues --   -0.49662  -0.47912  -0.46819  -0.46047  -0.45822
 Alpha  occ. eigenvalues --   -0.45217  -0.43590  -0.42701  -0.41096  -0.40369
 Alpha  occ. eigenvalues --   -0.39941  -0.39494  -0.39135  -0.38344  -0.37901
 Alpha  occ. eigenvalues --   -0.36980  -0.36039  -0.35798  -0.33539  -0.32669
 Alpha  occ. eigenvalues --   -0.26342  -0.25464  -0.24679  -0.23561  -0.22492
 Alpha virt. eigenvalues --    0.02212   0.03276   0.07915   0.09101   0.10159
 Alpha virt. eigenvalues --    0.11435   0.12783   0.13082   0.13936   0.14531
 Alpha virt. eigenvalues --    0.15071   0.15485   0.15691   0.16236   0.16600
 Alpha virt. eigenvalues --    0.17103   0.17406   0.18232   0.18795   0.19142
 Alpha virt. eigenvalues --    0.19503   0.20446   0.21283   0.21775   0.22831
 Alpha virt. eigenvalues --    0.24032   0.26243   0.27675   0.28887   0.33857
 Alpha virt. eigenvalues --    0.36393   0.38593   0.40842   0.48524   0.49351
 Alpha virt. eigenvalues --    0.50428   0.51355   0.51457   0.52508   0.54282
 Alpha virt. eigenvalues --    0.54816   0.55657   0.55872   0.57440   0.57892
 Alpha virt. eigenvalues --    0.59219   0.61069   0.61844   0.62883   0.64322
 Alpha virt. eigenvalues --    0.65296   0.67431   0.68359   0.69937   0.71268
 Alpha virt. eigenvalues --    0.73419   0.74638   0.76524   0.77549   0.78587
 Alpha virt. eigenvalues --    0.79035   0.79968   0.80486   0.81409   0.82757
 Alpha virt. eigenvalues --    0.83361   0.84397   0.84992   0.85067   0.85920
 Alpha virt. eigenvalues --    0.86156   0.87557   0.88476   0.89181   0.90277
 Alpha virt. eigenvalues --    0.91179   0.91559   0.92646   0.93042   0.94631
 Alpha virt. eigenvalues --    0.95570   0.95999   0.98468   1.00144   1.01167
 Alpha virt. eigenvalues --    1.02089   1.05734   1.07234   1.08754   1.09487
 Alpha virt. eigenvalues --    1.14605   1.15874   1.18657   1.21546   1.21949
 Alpha virt. eigenvalues --    1.24527   1.27144   1.28434   1.29119   1.31456
 Alpha virt. eigenvalues --    1.34186   1.36242   1.36971   1.38695   1.40776
 Alpha virt. eigenvalues --    1.41292   1.43191   1.47455   1.51949   1.53808
 Alpha virt. eigenvalues --    1.55912   1.57849   1.61504   1.63174   1.65384
 Alpha virt. eigenvalues --    1.68966   1.70335   1.71344   1.73323   1.75984
 Alpha virt. eigenvalues --    1.78625   1.79448   1.81787   1.82614   1.83320
 Alpha virt. eigenvalues --    1.85007   1.85859   1.86786   1.87551   1.88516
 Alpha virt. eigenvalues --    1.90404   1.91348   1.92289   1.93106   1.94873
 Alpha virt. eigenvalues --    1.96241   1.96442   1.97089   1.99750   2.00958
 Alpha virt. eigenvalues --    2.01343   2.02333   2.02760   2.02771   2.03500
 Alpha virt. eigenvalues --    2.04060   2.04413   2.05841   2.06567   2.07153
 Alpha virt. eigenvalues --    2.08816   2.09267   2.10884   2.11129   2.11883
 Alpha virt. eigenvalues --    2.13108   2.16595   2.17563   2.20978   2.21949
 Alpha virt. eigenvalues --    2.23086   2.25093   2.26452   2.27318   2.30500
 Alpha virt. eigenvalues --    2.31736   2.33452   2.35348   2.36755   2.38909
 Alpha virt. eigenvalues --    2.40423   2.43148   2.47211   2.48108   2.49361
 Alpha virt. eigenvalues --    2.52146   2.53803   2.55083   2.56767   2.57736
 Alpha virt. eigenvalues --    2.58982   2.60519   2.62087   2.62912   2.65712
 Alpha virt. eigenvalues --    2.66109   2.68027   2.68902   2.69593   2.70571
 Alpha virt. eigenvalues --    2.71039   2.72839   2.73980   2.77677   2.78690
 Alpha virt. eigenvalues --    2.80648   2.83144   2.84153   2.84434   2.85685
 Alpha virt. eigenvalues --    2.86435   2.87821   2.89678   2.90881   2.92050
 Alpha virt. eigenvalues --    2.97611   2.99142   2.99882   3.04716   3.07910
 Alpha virt. eigenvalues --    3.12545   3.14015   3.14682   3.17222   3.19671
 Alpha virt. eigenvalues --    3.23277   3.24956   3.26527   3.32390   3.35517
 Alpha virt. eigenvalues --    3.38074   3.41956   3.42183   3.42649   3.42891
 Alpha virt. eigenvalues --    3.43538   3.45744   3.46396   3.47459   3.49767
 Alpha virt. eigenvalues --    3.54846   3.95863   4.02913   4.08732   4.13392
 Alpha virt. eigenvalues --    4.24740   4.35843   4.39472   4.42132   4.44790
 Alpha virt. eigenvalues --    4.51725   4.53521   4.62979   4.68319   4.73227
          Condensed to atoms (all electrons):
              1          2          3          4          5          6
     1  C    5.161597   0.346437  -0.079618  -0.119998   0.008656  -0.000487
     2  C    0.346437   4.352723   0.562931   0.266715  -0.036237   0.003792
     3  O   -0.079618   0.562931   8.100895  -0.101980   0.012327   0.012341
     4  N   -0.119998   0.266715  -0.101980   7.102803   0.260239  -0.046721
     5  C    0.008656  -0.036237   0.012327   0.260239   5.040144   0.321850
     6  C   -0.000487   0.003792   0.012341  -0.046721   0.321850   4.398310
     7  O   -0.000270   0.006613  -0.003234  -0.001316  -0.084530   0.554720
     8  N   -0.000051  -0.000911  -0.002921   0.002375  -0.104010   0.263995
     9  C   -0.000018   0.000014  -0.006871   0.000214  -0.000104  -0.025598
    10  C   -0.000001  -0.000022  -0.000165  -0.000104   0.005875  -0.030555
    11  H    0.366609  -0.022446   0.004912   0.004465  -0.000192   0.000010
    12  H    0.355841  -0.019010   0.002034   0.002846  -0.000267   0.000026
    13  H    0.366653  -0.021413   0.000550   0.001197  -0.000188   0.000013
    14  H   -0.000119  -0.003531   0.001949  -0.037527   0.355669  -0.031071
    15  H   -0.000132   0.005600   0.000962  -0.036042   0.371308  -0.025603
    16  H    0.000000  -0.000083   0.000059  -0.000049  -0.001989  -0.003523
    17  H    0.000000  -0.000002   0.000096  -0.000006   0.000162   0.002155
    18  H    0.000120   0.000837   0.015449  -0.000457  -0.000989  -0.002873
    19  H    0.000000  -0.000001  -0.000002   0.000000  -0.000134   0.003704
    20  H    0.000000  -0.000018   0.000002  -0.000005   0.000940  -0.004206
    21  H    0.000001   0.000040   0.000175   0.000007  -0.000171  -0.001203
    22  C   -0.001194  -0.022380   0.002337   0.244686  -0.035671  -0.003232
    23  H    0.008269  -0.009484   0.000158  -0.030260   0.004051   0.000163
    24  H   -0.000337   0.001944  -0.000056  -0.035477  -0.003190   0.000958
    25  C   -0.000780   0.000829  -0.000039  -0.055281  -0.004305   0.000243
    26  H   -0.000101   0.000780  -0.000027   0.006087  -0.000160  -0.000020
    27  H    0.000017  -0.000063   0.000001   0.000751   0.002701   0.000172
    28  O   -0.000008   0.000008   0.000000   0.001999   0.000001  -0.000001
    29  C    0.000000  -0.000001   0.000000  -0.000129   0.000000   0.000000
    30  H    0.000000   0.000000   0.000000   0.000001   0.000000   0.000000
    31  H    0.000000   0.000000   0.000000   0.000011  -0.000002   0.000000
    32  H    0.000000   0.000000   0.000000   0.000009   0.000000   0.000000
              7          8          9         10         11         12
     1  C   -0.000270  -0.000051  -0.000018  -0.000001   0.366609   0.355841
     2  C    0.006613  -0.000911   0.000014  -0.000022  -0.022446  -0.019010
     3  O   -0.003234  -0.002921  -0.006871  -0.000165   0.004912   0.002034
     4  N   -0.001316   0.002375   0.000214  -0.000104   0.004465   0.002846
     5  C   -0.084530  -0.104010  -0.000104   0.005875  -0.000192  -0.000267
     6  C    0.554720   0.263995  -0.025598  -0.030555   0.000010   0.000026
     7  O    8.138408  -0.092558   0.002578  -0.008565   0.000001   0.000000
     8  N   -0.092558   7.036494   0.278524   0.294968   0.000001   0.000000
     9  C    0.002578   0.278524   4.835497  -0.047553   0.000000   0.000000
    10  C   -0.008565   0.294968  -0.047553   4.810254   0.000000   0.000000
    11  H    0.000001   0.000001   0.000000   0.000000   0.548410  -0.023713
    12  H    0.000000   0.000000   0.000000   0.000000  -0.023713   0.589229
    13  H    0.000156   0.000001   0.000000   0.000000  -0.021228  -0.029611
    14  H    0.003862   0.001897   0.003176  -0.000179   0.000005  -0.000003
    15  H   -0.001393   0.001337  -0.000064  -0.000136   0.000002  -0.000011
    16  H   -0.000036  -0.040455   0.384240   0.003090   0.000000   0.000000
    17  H   -0.000090  -0.031265   0.383679  -0.005639   0.000000   0.000000
    18  H    0.000173  -0.041210   0.378604   0.001869  -0.000002  -0.000003
    19  H    0.000698  -0.041500  -0.004044   0.381025   0.000000   0.000000
    20  H    0.020374  -0.035513   0.004725   0.385732   0.000000   0.000000
    21  H    0.000888  -0.046085  -0.000732   0.390032   0.000000   0.000000
    22  C    0.000842   0.000009   0.000001  -0.000001   0.000466  -0.002161
    23  H   -0.000043   0.000003   0.000000   0.000000   0.000001  -0.001028
    24  H    0.004103   0.000021  -0.000005   0.000002  -0.000015   0.000207
    25  C    0.000112   0.000004   0.000000   0.000000   0.000001  -0.000020
    26  H    0.000000   0.000000   0.000000   0.000000  -0.000016   0.001409
    27  H    0.000004   0.000001   0.000000   0.000000   0.000001  -0.000039
    28  O    0.000000   0.000000   0.000000   0.000000   0.000000  -0.000023
    29  C    0.000000   0.000000   0.000000   0.000000   0.000000  -0.000001
    30  H    0.000000   0.000000   0.000000   0.000000   0.000000   0.000000
    31  H    0.000000   0.000000   0.000000   0.000000   0.000000   0.000000
    32  H    0.000000   0.000000   0.000000   0.000000   0.000000   0.000002
             13         14         15         16         17         18
     1  C    0.366653  -0.000119  -0.000132   0.000000   0.000000   0.000120
     2  C   -0.021413  -0.003531   0.005600  -0.000083  -0.000002   0.000837
     3  O    0.000550   0.001949   0.000962   0.000059   0.000096   0.015449
     4  N    0.001197  -0.037527  -0.036042  -0.000049  -0.000006  -0.000457
     5  C   -0.000188   0.355669   0.371308  -0.001989   0.000162  -0.000989
     6  C    0.000013  -0.031071  -0.025603  -0.003523   0.002155  -0.002873
     7  O    0.000156   0.003862  -0.001393  -0.000036  -0.000090   0.000173
     8  N    0.000001   0.001897   0.001337  -0.040455  -0.031265  -0.041210
     9  C    0.000000   0.003176  -0.000064   0.384240   0.383679   0.378604
    10  C    0.000000  -0.000179  -0.000136   0.003090  -0.005639   0.001869
    11  H   -0.021228   0.000005   0.000002   0.000000   0.000000  -0.000002
    12  H   -0.029611  -0.000003  -0.000011   0.000000   0.000000  -0.000003
    13  H    0.559266  -0.000004  -0.000001   0.000000   0.000000  -0.000001
    14  H   -0.000004   0.619029  -0.033753   0.000852   0.000206   0.000021
    15  H   -0.000001  -0.033753   0.588297   0.000592  -0.000015   0.000002
    16  H    0.000000   0.000852   0.000592   0.614297  -0.030271  -0.040248
    17  H    0.000000   0.000206  -0.000015  -0.030271   0.591127  -0.025944
    18  H   -0.000001   0.000021   0.000002  -0.040248  -0.025944   0.554201
    19  H    0.000000  -0.000018   0.000016   0.000767   0.002496  -0.000420
    20  H    0.000000  -0.000047  -0.000015  -0.000181   0.000172  -0.000242
    21  H    0.000000  -0.000005  -0.000006  -0.000334   0.000449   0.001977
    22  C   -0.002337   0.003375  -0.001207   0.000000   0.000000  -0.000003
    23  H    0.000999  -0.000249   0.000382   0.000000   0.000000   0.000000
    24  H    0.000300   0.000043   0.001098   0.000001   0.000000  -0.000001
    25  C    0.000050   0.000782  -0.001526   0.000000   0.000000   0.000000
    26  H    0.000034   0.000003  -0.000092   0.000000   0.000000   0.000000
    27  H   -0.000004  -0.000401   0.002850   0.000000   0.000000   0.000000
    28  O   -0.000001  -0.000002  -0.000071   0.000000   0.000000   0.000000
    29  C    0.000000   0.000000   0.000000   0.000000   0.000000   0.000000
    30  H    0.000000   0.000000   0.000000   0.000000   0.000000   0.000000
    31  H    0.000000   0.000000   0.000003   0.000000   0.000000   0.000000
    32  H    0.000000   0.000000   0.000000   0.000000   0.000000   0.000000
             19         20         21         22         23         24
     1  C    0.000000   0.000000   0.000001  -0.001194   0.008269  -0.000337
     2  C   -0.000001  -0.000018   0.000040  -0.022380  -0.009484   0.001944
     3  O   -0.000002   0.000002   0.000175   0.002337   0.000158  -0.000056
     4  N    0.000000  -0.000005   0.000007   0.244686  -0.030260  -0.035477
     5  C   -0.000134   0.000940  -0.000171  -0.035671   0.004051  -0.003190
     6  C    0.003704  -0.004206  -0.001203  -0.003232   0.000163   0.000958
     7  O    0.000698   0.020374   0.000888   0.000842  -0.000043   0.004103
     8  N   -0.041500  -0.035513  -0.046085   0.000009   0.000003   0.000021
     9  C   -0.004044   0.004725  -0.000732   0.000001   0.000000  -0.000005
    10  C    0.381025   0.385732   0.390032  -0.000001   0.000000   0.000002
    11  H    0.000000   0.000000   0.000000   0.000466   0.000001  -0.000015
    12  H    0.000000   0.000000   0.000000  -0.002161  -0.001028   0.000207
    13  H    0.000000   0.000000   0.000000  -0.002337   0.000999   0.000300
    14  H   -0.000018  -0.000047  -0.000005   0.003375  -0.000249   0.000043
    15  H    0.000016  -0.000015  -0.000006  -0.001207   0.000382   0.001098
    16  H    0.000767  -0.000181  -0.000334   0.000000   0.000000   0.000001
    17  H    0.002496   0.000172   0.000449   0.000000   0.000000   0.000000
    18  H   -0.000420  -0.000242   0.001977  -0.000003   0.000000  -0.000001
    19  H    0.620451  -0.023364  -0.043993   0.000000   0.000000   0.000000
    20  H   -0.023364   0.527348  -0.029877   0.000000   0.000000  -0.000001
    21  H   -0.043993  -0.029877   0.607071   0.000000   0.000000   0.000000
    22  C    0.000000   0.000000   0.000000   4.906986   0.378593   0.375798
    23  H    0.000000   0.000000   0.000000   0.378593   0.590639  -0.030549
    24  H    0.000000  -0.000001   0.000000   0.375798  -0.030549   0.585280
    25  C    0.000000   0.000000   0.000000   0.353523  -0.040449  -0.045800
    26  H    0.000000   0.000000   0.000000  -0.039586  -0.008749   0.006577
    27  H    0.000000   0.000000   0.000000  -0.040673   0.006565  -0.007518
    28  O    0.000000   0.000000   0.000000  -0.039596   0.005235   0.005521
    29  C    0.000000   0.000000   0.000000   0.004414  -0.000071  -0.000090
    30  H    0.000000   0.000000   0.000000  -0.000254   0.000005   0.000011
    31  H    0.000000   0.000000   0.000000   0.000013   0.000051  -0.000058
    32  H    0.000000   0.000000   0.000000   0.000020  -0.000071   0.000042
             25         26         27         28         29         30
     1  C   -0.000780  -0.000101   0.000017  -0.000008   0.000000   0.000000
     2  C    0.000829   0.000780  -0.000063   0.000008  -0.000001   0.000000
     3  O   -0.000039  -0.000027   0.000001   0.000000   0.000000   0.000000
     4  N   -0.055281   0.006087   0.000751   0.001999  -0.000129   0.000001
     5  C   -0.004305  -0.000160   0.002701   0.000001   0.000000   0.000000
     6  C    0.000243  -0.000020   0.000172  -0.000001   0.000000   0.000000
     7  O    0.000112   0.000000   0.000004   0.000000   0.000000   0.000000
     8  N    0.000004   0.000000   0.000001   0.000000   0.000000   0.000000
     9  C    0.000000   0.000000   0.000000   0.000000   0.000000   0.000000
    10  C    0.000000   0.000000   0.000000   0.000000   0.000000   0.000000
    11  H    0.000001  -0.000016   0.000001   0.000000   0.000000   0.000000
    12  H   -0.000020   0.001409  -0.000039  -0.000023  -0.000001   0.000000
    13  H    0.000050   0.000034  -0.000004  -0.000001   0.000000   0.000000
    14  H    0.000782   0.000003  -0.000401  -0.000002   0.000000   0.000000
    15  H   -0.001526  -0.000092   0.002850  -0.000071   0.000000   0.000000
    16  H    0.000000   0.000000   0.000000   0.000000   0.000000   0.000000
    17  H    0.000000   0.000000   0.000000   0.000000   0.000000   0.000000
    18  H    0.000000   0.000000   0.000000   0.000000   0.000000   0.000000
    19  H    0.000000   0.000000   0.000000   0.000000   0.000000   0.000000
    20  H    0.000000   0.000000   0.000000   0.000000   0.000000   0.000000
    21  H    0.000000   0.000000   0.000000   0.000000   0.000000   0.000000
    22  C    0.353523  -0.039586  -0.040673  -0.039596   0.004414  -0.000254
    23  H   -0.040449  -0.008749   0.006565   0.005235  -0.000071   0.000005
    24  H   -0.045800   0.006577  -0.007518   0.005521  -0.000090   0.000011
    25  C    4.791407   0.357083   0.363459   0.232415  -0.033952   0.005327
    26  H    0.357083   0.689414  -0.061505  -0.038777  -0.006398  -0.000098
    27  H    0.363459  -0.061505   0.687878  -0.039031  -0.006203  -0.000109
    28  O    0.232415  -0.038777  -0.039031   8.205028   0.258675  -0.032832
    29  C   -0.033952  -0.006398  -0.006203   0.258675   4.707749   0.394946
    30  H    0.005327  -0.000098  -0.000109  -0.032832   0.394946   0.583887
    31  H   -0.009215  -0.002680   0.013501  -0.037603   0.370410  -0.034666
    32  H   -0.008860   0.013102  -0.002748  -0.037578   0.370409  -0.034956
             31         32
     1  C    0.000000   0.000000
     2  C    0.000000   0.000000
     3  O    0.000000   0.000000
     4  N    0.000011   0.000009
     5  C   -0.000002   0.000000
     6  C    0.000000   0.000000
     7  O    0.000000   0.000000
     8  N    0.000000   0.000000
     9  C    0.000000   0.000000
    10  C    0.000000   0.000000
    11  H    0.000000   0.000000
    12  H    0.000000   0.000002
    13  H    0.000000   0.000000
    14  H    0.000000   0.000000
    15  H    0.000003   0.000000
    16  H    0.000000   0.000000
    17  H    0.000000   0.000000
    18  H    0.000000   0.000000
    19  H    0.000000   0.000000
    20  H    0.000000   0.000000
    21  H    0.000000   0.000000
    22  C    0.000013   0.000020
    23  H    0.000051  -0.000071
    24  H   -0.000058   0.000042
    25  C   -0.009215  -0.008860
    26  H   -0.002680   0.013102
    27  H    0.013501  -0.002748
    28  O   -0.037603  -0.037578
    29  C    0.370410   0.370409
    30  H   -0.034666  -0.034956
    31  H    0.660105  -0.052557
    32  H   -0.052557   0.660442
 Mulliken atomic charges:
              1
     1  C   -0.411085
     2  C    0.586340
     3  O   -0.522262
     4  N   -0.429052
     5  C   -0.111784
     6  C    0.612641
     7  O   -0.541496
     8  N   -0.443152
     9  C   -0.186261
    10  C   -0.179925
    11  H    0.142730
    12  H    0.124295
    13  H    0.145567
    14  H    0.116039
    15  H    0.127618
    16  H    0.113275
    17  H    0.112690
    18  H    0.159143
    19  H    0.104320
    20  H    0.154177
    21  H    0.121768
    22  C   -0.082769
    23  H    0.125840
    24  H    0.141192
    25  C    0.094992
    26  H    0.083717
    27  H    0.080391
    28  O   -0.483360
    29  C   -0.059760
    30  H    0.118740
    31  H    0.092688
    32  H    0.092744
 Sum of Mulliken atomic charges =   0.00000
 Mulliken charges with hydrogens summed into heavy atoms:
              1
     1  C    0.001507
     2  C    0.586340
     3  O   -0.522262
     4  N   -0.429052
     5  C    0.131872
     6  C    0.612641
     7  O   -0.541496
     8  N   -0.443152
     9  C    0.198847
    10  C    0.200340
    22  C    0.184263
    25  C    0.259100
    28  O   -0.483360
    29  C    0.244411
 Sum of Mulliken charges with hydrogens summed into heavy atoms =   0.00000
 Electronic spatial extent (au):  <R**2>=           3995.9799
 Charge=              0.0000 electrons
 Dipole moment (field-independent basis, Debye):
    X=             -1.6570    Y=             -1.3144    Z=              2.7897  Tot=              3.5008
 Quadrupole moment (field-independent basis, Debye-Ang):
   XX=            -71.9339   YY=            -82.5469   ZZ=            -88.8184
   XY=             -4.2494   XZ=              0.0213   YZ=             -5.1329
 Traceless Quadrupole moment (field-independent basis, Debye-Ang):
   XX=              9.1658   YY=             -1.4472   ZZ=             -7.7187
   XY=             -4.2494   XZ=              0.0213   YZ=             -5.1329
 Octapole moment (field-independent basis, Debye-Ang**2):
  XXX=              3.7461  YYY=              5.5557  ZZZ=              5.8887  XYY=            -14.4552
  XXY=            -24.6029  XXZ=             20.5269  XZZ=             -1.1613  YZZ=              0.9141
  YYZ=             -5.2399  XYZ=             -1.9701
 Hexadecapole moment (field-independent basis, Debye-Ang**3):
 XXXX=          -3372.1745 YYYY=           -864.7465 ZZZZ=           -441.3818 XXXY=             51.6781
 XXXZ=            -48.2793 YYYX=              2.1526 YYYZ=             -3.3004 ZZZX=             23.3327
 ZZZY=             -1.5753 XXYY=           -777.3693 XXZZ=           -709.4488 YYZZ=           -219.0735
 XXYZ=            -13.1675 YYXZ=             -6.6311 ZZXY=             -3.8797
 N-N= 9.680898349991D+02 E-N=-3.542340279651D+03  KE= 6.826307339883D+02
 Calling FoFJK, ICntrl=      2127 FMM=F ISym2X=0 I1Cent= 0 IOpClX= 0 NMat=1 NMatS=1 NMatT=0.
 ***** Axes restored to original set *****
 -------------------------------------------------------------------
 Center     Atomic                   Forces (Hartrees/Bohr)
 Number     Number              X              Y              Z
 -------------------------------------------------------------------
      1        6           0.000001051   -0.000001640   -0.000004521
      2        6           0.001131319    0.000345494   -0.005441363
      3        8          -0.000000098   -0.000002992   -0.000003063
      4        7          -0.000732295   -0.001471118    0.008926756
      5        6          -0.002636532    0.003727610   -0.006865095
      6        6           0.002237798   -0.002597268    0.003383716
      7        8           0.000001471    0.000001445    0.000000066
      8        7           0.000000811   -0.000000513   -0.000001687
      9        6          -0.000003028    0.000000326    0.000005411
     10        6           0.000002743    0.000000145   -0.000000056
     11        1           0.000000085    0.000000491   -0.000004049
     12        1          -0.000000019   -0.000000047   -0.000003713
     13        1           0.000000190    0.000001845   -0.000002966
     14        1           0.000002316    0.000000206    0.000001124
     15        1          -0.000000918    0.000000129    0.000001587
     16        1          -0.000000416   -0.000002520    0.000001996
     17        1          -0.000001352   -0.000002271    0.000001222
     18        1          -0.000000443   -0.000002825    0.000000688
     19        1          -0.000000826    0.000000515    0.000001993
     20        1           0.000000184    0.000002058    0.000001482
     21        1          -0.000001056    0.000001691   -0.000000035
     22        6          -0.000001405   -0.000001030   -0.000002159
     23        1           0.000001032    0.000000816   -0.000001183
     24        1          -0.000000422    0.000002254    0.000001470
     25        6          -0.000002129   -0.000000098   -0.000000323
     26        1          -0.000000032   -0.000000711   -0.000001454
     27        1           0.000000503   -0.000000893    0.000000650
     28        8          -0.000000052    0.000001324    0.000002410
     29        6           0.000003091   -0.000001344   -0.000001895
     30        1          -0.000000303    0.000000436    0.000000742
     31        1          -0.000000544   -0.000000446    0.000001960
     32        1          -0.000000724   -0.000001067    0.000000286
 -------------------------------------------------------------------
 Cartesian Forces:  Max     0.008926756 RMS     0.001459789

 GradGradGradGradGradGradGradGradGradGradGradGradGradGradGradGradGradGrad
 Berny optimization.
 Internal  Forces:  Max     0.004968532 RMS     0.000669491
 Search for a local minimum.
 Step number   1 out of a maximum of  155 on scan point     1 out of    37
 All quantities printed in internal units (Hartrees-Bohrs-Radians)
 Mixed Optimization -- En-DIIS/RFO-DIIS
 Second derivative matrix not updated -- first step.
 ITU=  0
     Eigenvalues ---    0.00384   0.00513   0.00739   0.00850   0.00855
     Eigenvalues ---    0.00902   0.01110   0.01242   0.01392   0.01527
     Eigenvalues ---    0.01534   0.02009   0.02126   0.02901   0.04232
     Eigenvalues ---    0.05350   0.05506   0.05910   0.06430   0.06943
     Eigenvalues ---    0.07162   0.07413   0.07508   0.07631   0.07655
     Eigenvalues ---    0.09321   0.09660   0.10037   0.10509   0.10647
     Eigenvalues ---    0.11099   0.12804   0.13622   0.16000   0.16000
     Eigenvalues ---    0.16000   0.16000   0.16000   0.16000   0.16000
     Eigenvalues ---    0.16000   0.16000   0.16000   0.16000   0.16000
     Eigenvalues ---    0.21925   0.21927   0.21990   0.22599   0.23511
     Eigenvalues ---    0.23799   0.24068   0.24887   0.24989   0.25000
     Eigenvalues ---    0.25000   0.25000   0.28413   0.29529   0.30452
     Eigenvalues ---    0.33246   0.33311   0.33539   0.33543   0.33910
     Eigenvalues ---    0.34204   0.34212   0.34261   0.34300   0.34337
     Eigenvalues ---    0.34393   0.34510   0.34548   0.34653   0.34689
     Eigenvalues ---    0.34864   0.34885   0.34988   0.36241   0.36517
     Eigenvalues ---    0.36556   0.37000   0.43612   0.43700   0.49831
     Eigenvalues ---    0.51528   0.91100   0.916361000.000001000.00000
     Eigenvalues --- 1000.000001000.000001000.000001000.000001000.00000
     Eigenvalues --- 1000.000001000.000001000.000001000.000001000.00000
     Eigenvalues --- 1000.000001000.000001000.000001000.000001000.00000
     Eigenvalues --- 1000.000001000.000001000.000001000.000001000.00000
     Eigenvalues --- 1000.000001000.000001000.000001000.000001000.00000
     Eigenvalues --- 1000.000001000.000001000.000001000.000001000.00000
     Eigenvalues --- 1000.000001000.000001000.000001000.000001000.00000
     Eigenvalues --- 1000.000001000.000001000.000001000.000001000.00000
     Eigenvalues --- 1000.000001000.000001000.000001000.000001000.00000
     Eigenvalues --- 1000.000001000.000001000.000001000.000001000.00000
     Eigenvalues --- 1000.000001000.000001000.000001000.000001000.00000
 RFO step:  Lambda= 0.00000000D+00 EMin= 3.84227346D-03
 Linear search not attempted -- first point.
 Iteration  1 RMS(Cart)=  0.00007952 RMS(Int)=  0.00000000
 Iteration  2 RMS(Cart)=  0.00000000 RMS(Int)=  0.00000000
 Iteration  1 RMS(Cart)=  0.00000000 RMS(Int)=  0.00000000
 Variable       Old X    -DE/DX   Delta X   Delta X   Delta X     New X
                                 (Linear)    (Quad)   (Total)
    R1        2.87070   0.00000   0.00000   0.00000   0.00000   2.87070
    R2        2.05897   0.00000   0.00000   0.00000   0.00000   2.05897
    R3        2.06672   0.00000   0.00000   0.00000   0.00000   2.06672
    R4        2.06973   0.00000   0.00000   0.00000   0.00000   2.06973
    R5        2.32430   0.00000   0.00000   0.00000   0.00000   2.32430
    R6        2.60036   0.00000   0.00000  -0.00001  -0.00001   2.60035
    R7        2.77006   0.00000   0.00000   0.00000   0.00000   2.77006
    R8        2.76520   0.00000   0.00000   0.00000   0.00000   2.76520
    R9        2.91244   0.00000   0.00000   0.00001   0.00001   2.91245
   R10        2.06182   0.00000   0.00000   0.00000   0.00000   2.06182
   R11        2.06477   0.00000   0.00000   0.00000   0.00000   2.06477
   R12        2.32188   0.00000   0.00000   0.00000   0.00000   2.32188
   R13        2.58354   0.00000   0.00000   0.00001   0.00001   2.58355
   R14        2.76581   0.00000   0.00000  -0.00001  -0.00001   2.76580
   R15        2.75846   0.00000   0.00000   0.00000   0.00000   2.75846
   R16        2.06988   0.00000   0.00000   0.00000   0.00000   2.06988
   R17        2.06242   0.00000   0.00000   0.00000   0.00000   2.06242
   R18        2.06765   0.00000   0.00000   0.00000   0.00000   2.06764
   R19        2.06827   0.00000   0.00000   0.00000   0.00000   2.06827
   R20        2.05695   0.00000   0.00000   0.00000   0.00000   2.05695
   R21        2.07482   0.00000   0.00000   0.00000   0.00000   2.07482
   R22        2.05862   0.00000   0.00000   0.00000   0.00000   2.05862
   R23        2.06891   0.00000   0.00000   0.00000   0.00000   2.06891
   R24        2.88912   0.00000   0.00000   0.00000   0.00000   2.88912
   R25        2.08509   0.00000   0.00000   0.00000   0.00000   2.08509
   R26        2.08621   0.00000   0.00000   0.00000   0.00000   2.08621
   R27        2.66815   0.00000   0.00000   0.00000   0.00000   2.66815
   R28        2.66921   0.00000   0.00000   0.00001   0.00001   2.66922
   R29        2.06415   0.00000   0.00000   0.00000   0.00000   2.06415
   R30        2.08115   0.00000   0.00000   0.00000   0.00000   2.08115
   R31        2.08109   0.00000   0.00000   0.00000   0.00000   2.08109
    A1        1.87155   0.00000   0.00000   0.00000   0.00000   1.87155
    A2        1.96857   0.00000   0.00000   0.00000   0.00000   1.96857
    A3        1.93280   0.00000   0.00000   0.00000   0.00000   1.93280
    A4        1.90953   0.00000   0.00000   0.00000   0.00000   1.90953
    A5        1.89417   0.00000   0.00000   0.00000   0.00000   1.89417
    A6        1.88603   0.00000   0.00000   0.00000   0.00000   1.88603
    A7        2.10905   0.00000   0.00000   0.00001   0.00001   2.10907
    A8        2.07318   0.00000   0.00000   0.00000   0.00000   2.07318
    A9        2.10046   0.00000   0.00000  -0.00001  -0.00001   2.10045
   A10        2.01500  -0.00037   0.00000  -0.00001  -0.00001   2.01498
   A11        2.15763   0.00115   0.00000   0.00002   0.00002   2.15764
   A12        2.04027  -0.00023   0.00000   0.00000   0.00000   2.04026
   A13        1.94201  -0.00002   0.00000   0.00001   0.00001   1.94202
   A14        1.91296   0.00012   0.00000  -0.00003  -0.00003   1.91293
   A15        1.88639  -0.00021   0.00000   0.00001   0.00001   1.88640
   A16        1.96916   0.00221   0.00000   0.00001   0.00001   1.96918
   A17        1.86854  -0.00228   0.00000   0.00000   0.00000   1.86854
   A18        1.88148   0.00005   0.00000   0.00000   0.00000   1.88148
   A19        2.06269   0.00000   0.00000  -0.00002  -0.00002   2.06266
   A20        2.06423   0.00001   0.00000   0.00002   0.00002   2.06426
   A21        2.15204   0.00000   0.00000  -0.00001  -0.00001   2.15203
   A22        2.14127   0.00001   0.00000   0.00003   0.00003   2.14130
   A23        2.04898   0.00000   0.00000   0.00000   0.00000   2.04897
   A24        2.03983  -0.00001   0.00000  -0.00002  -0.00002   2.03980
   A25        1.95398   0.00000   0.00000   0.00000   0.00000   1.95398
   A26        1.89003   0.00000   0.00000   0.00000   0.00000   1.89003
   A27        1.93537   0.00000   0.00000   0.00000   0.00000   1.93537
   A28        1.87172   0.00000   0.00000   0.00000   0.00000   1.87171
   A29        1.91288   0.00000   0.00000   0.00000   0.00000   1.91288
   A30        1.89783   0.00000   0.00000   0.00000   0.00000   1.89784
   A31        1.91535   0.00000   0.00000   0.00000   0.00000   1.91535
   A32        1.89400   0.00000   0.00000   0.00000   0.00000   1.89400
   A33        1.94293   0.00000   0.00000   0.00000   0.00000   1.94293
   A34        1.91796   0.00000   0.00000   0.00000   0.00000   1.91796
   A35        1.89935   0.00000   0.00000  -0.00001  -0.00001   1.89934
   A36        1.89414   0.00000   0.00000   0.00000   0.00000   1.89414
   A37        1.92419   0.00000   0.00000   0.00000   0.00000   1.92419
   A38        1.90955   0.00000   0.00000   0.00000   0.00000   1.90955
   A39        1.95367   0.00000   0.00000   0.00000   0.00000   1.95368
   A40        1.86160   0.00000   0.00000  -0.00001  -0.00001   1.86159
   A41        1.89475   0.00000   0.00000  -0.00001  -0.00001   1.89474
   A42        1.91779   0.00000   0.00000   0.00001   0.00001   1.91780
   A43        1.91683   0.00000   0.00000   0.00000   0.00000   1.91683
   A44        1.93009   0.00000   0.00000   0.00001   0.00001   1.93009
   A45        1.87440   0.00000   0.00000   0.00000   0.00000   1.87440
   A46        1.86667   0.00000   0.00000   0.00000   0.00000   1.86667
   A47        1.94166   0.00000   0.00000   0.00000   0.00000   1.94166
   A48        1.93486   0.00000   0.00000   0.00000   0.00000   1.93486
   A49        1.97308   0.00000   0.00000   0.00000   0.00000   1.97308
   A50        1.87232   0.00000   0.00000   0.00000   0.00000   1.87232
   A51        1.95074   0.00000   0.00000   0.00000   0.00000   1.95074
   A52        1.95152   0.00000   0.00000   0.00000   0.00000   1.95152
   A53        1.89984   0.00000   0.00000   0.00000   0.00000   1.89984
   A54        1.90008   0.00000   0.00000   0.00000   0.00000   1.90009
   A55        1.88827   0.00000   0.00000   0.00000   0.00000   1.88828
    D1       -0.17562   0.00000   0.00000   0.00005   0.00005  -0.17557
    D2        2.93233   0.00000   0.00000  -0.00004  -0.00004   2.93229
    D3       -2.27893   0.00000   0.00000   0.00006   0.00006  -2.27887
    D4        0.82903   0.00000   0.00000  -0.00004  -0.00004   0.82898
    D5        1.88811   0.00000   0.00000   0.00005   0.00005   1.88817
    D6       -1.28712   0.00000   0.00000  -0.00004  -0.00004  -1.28716
    D7        2.97381   0.00073   0.00000   0.00008   0.00008   2.97389
    D8        0.23955  -0.00073   0.00000   0.00008   0.00008   0.23963
    D9       -0.20125   0.00073   0.00000  -0.00002  -0.00002  -0.20127
   D10       -2.93551  -0.00073   0.00000  -0.00002  -0.00002  -2.93553
   D11       -0.89588  -0.00497   0.00000   0.00000   0.00000  -0.89588
   D12        1.29429  -0.00205   0.00000   0.00000   0.00000   1.29430
   D13       -2.94272  -0.00205   0.00000  -0.00001  -0.00001  -2.94272
   D14        1.86680  -0.00328   0.00000   0.00001   0.00001   1.86681
   D15       -2.22621  -0.00036   0.00000   0.00001   0.00001  -2.22620
   D16       -0.18003  -0.00036   0.00000   0.00000   0.00000  -0.18003
   D17        0.02511   0.00072   0.00000  -0.00001  -0.00001   0.02510
   D18        2.06714   0.00072   0.00000  -0.00002  -0.00002   2.06712
   D19       -2.08592   0.00073   0.00000  -0.00001  -0.00001  -2.08593
   D20       -2.70375  -0.00072   0.00000  -0.00002  -0.00002  -2.70376
   D21       -0.66172  -0.00073   0.00000  -0.00002  -0.00002  -0.66174
   D22        1.46841  -0.00072   0.00000  -0.00001  -0.00001   1.46840
   D23       -0.88291   0.00114   0.00000  -0.00008  -0.00008  -0.88299
   D24        2.35408   0.00114   0.00000   0.00000   0.00000   2.35408
   D25       -3.04143  -0.00064   0.00000  -0.00006  -0.00006  -3.04149
   D26        0.19556  -0.00064   0.00000   0.00002   0.00002   0.19557
   D27        1.17474  -0.00050   0.00000  -0.00007  -0.00007   1.17468
   D28       -1.87146  -0.00050   0.00000   0.00001   0.00001  -1.87144
   D29       -0.37123   0.00000   0.00000  -0.00008  -0.00008  -0.37131
   D30        3.12583   0.00000   0.00000  -0.00008  -0.00008   3.12575
   D31        2.87098   0.00000   0.00000   0.00000   0.00000   2.87099
   D32        0.08486   0.00000   0.00000   0.00001   0.00001   0.08487
   D33        1.24585   0.00000   0.00000   0.00000   0.00000   1.24585
   D34       -2.97744   0.00000   0.00000  -0.00001  -0.00001  -2.97745
   D35       -0.89653   0.00000   0.00000   0.00000   0.00000  -0.89653
   D36       -2.24947   0.00000   0.00000   0.00000   0.00000  -2.24948
   D37       -0.18958   0.00000   0.00000  -0.00001  -0.00001  -0.18959
   D38        1.89133   0.00000   0.00000   0.00000   0.00000   1.89133
   D39       -2.49917   0.00000   0.00000   0.00001   0.00001  -2.49917
   D40       -0.40315   0.00000   0.00000   0.00001   0.00001  -0.40314
   D41        1.68026   0.00000   0.00000   0.00002   0.00002   1.68027
   D42        0.97701   0.00000   0.00000   0.00000   0.00000   0.97701
   D43        3.07304   0.00000   0.00000   0.00000   0.00000   3.07304
   D44       -1.12675   0.00000   0.00000   0.00001   0.00001  -1.12674
   D45        1.04233   0.00000   0.00000  -0.00001  -0.00001   1.04233
   D46       -1.01380   0.00000   0.00000  -0.00001  -0.00001  -1.01381
   D47       -3.12709   0.00000   0.00000  -0.00001  -0.00001  -3.12709
   D48       -1.08566   0.00000   0.00000  -0.00001  -0.00001  -1.08566
   D49        3.14139   0.00000   0.00000  -0.00001  -0.00001   3.14138
   D50        1.02811   0.00000   0.00000  -0.00001  -0.00001   1.02810
   D51       -3.11545   0.00000   0.00000   0.00000   0.00000  -3.11545
   D52        1.11160   0.00000   0.00000   0.00000   0.00000   1.11160
   D53       -1.00169   0.00000   0.00000   0.00000   0.00000  -1.00169
   D54        3.13234   0.00000   0.00000   0.00000   0.00000   3.13234
   D55       -1.05277   0.00000   0.00000   0.00000   0.00000  -1.05277
   D56        1.02207   0.00000   0.00000  -0.00001  -0.00001   1.02206
   D57        3.14116   0.00000   0.00000   0.00001   0.00001   3.14117
   D58       -1.06075   0.00000   0.00000   0.00001   0.00001  -1.06074
   D59        1.05914   0.00000   0.00000   0.00001   0.00001   1.05915
         Item               Value     Threshold  Converged?
 Maximum Force            0.000007     0.000450     YES
 RMS     Force            0.000001     0.000300     YES
 Maximum Displacement     0.000298     0.001800     YES
 RMS     Displacement     0.000080     0.001200     YES
 Predicted change in Energy=-9.678239D-10
 Optimization completed.
    -- Stationary point found.
                           ----------------------------
                           !   Optimized Parameters   !
                           ! (Angstroms and Degrees)  !
 --------------------------                            --------------------------
 ! Name  Definition              Value          Derivative Info.                !
 --------------------------------------------------------------------------------
 ! R1    R(1,2)                  1.5191         -DE/DX =    0.0                 !
 ! R2    R(1,11)                 1.0896         -DE/DX =    0.0                 !
 ! R3    R(1,12)                 1.0937         -DE/DX =    0.0                 !
 ! R4    R(1,13)                 1.0953         -DE/DX =    0.0                 !
 ! R5    R(2,3)                  1.23           -DE/DX =    0.0                 !
 ! R6    R(2,4)                  1.3761         -DE/DX =    0.0                 !
 ! R7    R(4,5)                  1.4659         -DE/DX =    0.0                 !
 ! R8    R(4,22)                 1.4633         -DE/DX =    0.0                 !
 ! R9    R(5,6)                  1.5412         -DE/DX =    0.0                 !
 ! R10   R(5,14)                 1.0911         -DE/DX =    0.0                 !
 ! R11   R(5,15)                 1.0926         -DE/DX =    0.0                 !
 ! R12   R(6,7)                  1.2287         -DE/DX =    0.0                 !
 ! R13   R(6,8)                  1.3672         -DE/DX =    0.0                 !
 ! R14   R(8,9)                  1.4636         -DE/DX =    0.0                 !
 ! R15   R(8,10)                 1.4597         -DE/DX =    0.0                 !
 ! R16   R(9,16)                 1.0953         -DE/DX =    0.0                 !
 ! R17   R(9,17)                 1.0914         -DE/DX =    0.0                 !
 ! R18   R(9,18)                 1.0942         -DE/DX =    0.0                 !
 ! R19   R(10,19)                1.0945         -DE/DX =    0.0                 !
 ! R20   R(10,20)                1.0885         -DE/DX =    0.0                 !
 ! R21   R(10,21)                1.0979         -DE/DX =    0.0                 !
 ! R22   R(22,23)                1.0894         -DE/DX =    0.0                 !
 ! R23   R(22,24)                1.0948         -DE/DX =    0.0                 !
 ! R24   R(22,25)                1.5289         -DE/DX =    0.0                 !
 ! R25   R(25,26)                1.1034         -DE/DX =    0.0                 !
 ! R26   R(25,27)                1.104          -DE/DX =    0.0                 !
 ! R27   R(25,28)                1.4119         -DE/DX =    0.0                 !
 ! R28   R(28,29)                1.4125         -DE/DX =    0.0                 !
 ! R29   R(29,30)                1.0923         -DE/DX =    0.0                 !
 ! R30   R(29,31)                1.1013         -DE/DX =    0.0                 !
 ! R31   R(29,32)                1.1013         -DE/DX =    0.0                 !
 ! A1    A(2,1,11)             107.2317         -DE/DX =    0.0                 !
 ! A2    A(2,1,12)             112.7909         -DE/DX =    0.0                 !
 ! A3    A(2,1,13)             110.7413         -DE/DX =    0.0                 !
 ! A4    A(11,1,12)            109.4081         -DE/DX =    0.0                 !
 ! A5    A(11,1,13)            108.5282         -DE/DX =    0.0                 !
 ! A6    A(12,1,13)            108.0615         -DE/DX =    0.0                 !
 ! A7    A(1,2,3)              120.8399         -DE/DX =    0.0                 !
 ! A8    A(1,2,4)              118.7845         -DE/DX =    0.0                 !
 ! A9    A(3,2,4)              120.3473         -DE/DX =    0.0                 !
 ! A10   A(2,4,5)              115.4509         -DE/DX =   -0.0004              !
 ! A11   A(2,4,22)             123.6229         -DE/DX =    0.0012              !
 ! A12   A(5,4,22)             116.8986         -DE/DX =   -0.0002              !
 ! A13   A(4,5,6)              111.2691         -DE/DX =    0.0                 !
 ! A14   A(4,5,14)             109.6045         -DE/DX =    0.0001              !
 ! A15   A(4,5,15)             108.0822         -DE/DX =   -0.0002              !
 ! A16   A(6,5,14)             112.8248         -DE/DX =    0.0022              !
[...]
    D7        2.68599   0.00175   0.00012   0.00004   0.00015   2.68614
    D8        0.18981  -0.00175   0.00006   0.00001   0.00007   0.18988
    D9       -0.54623   0.00175   0.00011   0.00005   0.00016  -0.54607
   D10       -3.04241  -0.00174   0.00005   0.00003   0.00008  -3.04233
   D11       -0.89590  -0.01190   0.00000   0.00000   0.00000  -0.89590
   D12        1.22023  -0.00662   0.00007  -0.00003   0.00005   1.22028
   D13       -3.02348  -0.00665   0.00009   0.00003   0.00013  -3.02335
   D14        1.65002  -0.00671   0.00005   0.00003   0.00009   1.65011
   D15       -2.51704  -0.00143   0.00013   0.00001   0.00014  -2.51690
   D16       -0.47756  -0.00146   0.00015   0.00007   0.00022  -0.47734
   D17       -0.18515   0.00164   0.00017   0.00029   0.00046  -0.18469
   D18        1.87392   0.00164   0.00015   0.00029   0.00044   1.87436
   D19       -2.27739   0.00164   0.00015   0.00028   0.00043  -2.27696
   D20       -2.68532  -0.00164   0.00011   0.00029   0.00040  -2.68493
   D21       -0.62625  -0.00164   0.00009   0.00028   0.00037  -0.62588
   D22        1.50562  -0.00164   0.00009   0.00027   0.00036   1.50598
   D23        0.08071  -0.00085  -0.00012  -0.00003  -0.00015   0.08056
   D24       -2.88191  -0.00458   0.00000   0.00000   0.00000  -2.88191
   D25       -2.04046  -0.00143  -0.00020   0.00003  -0.00017  -2.04063
   D26        1.28010  -0.00515  -0.00009   0.00006  -0.00002   1.28008
   D27        2.19309  -0.00142  -0.00021  -0.00003  -0.00024   2.19285
   D28       -0.76953  -0.00515  -0.00009   0.00000  -0.00009  -0.76963
   D29       -0.37218   0.00183   0.00006   0.00010   0.00016  -0.37203
   D30        3.11508   0.00182  -0.00018  -0.00019  -0.00036   3.11471
   D31        2.94898  -0.00182   0.00017   0.00013   0.00030   2.94929
   D32        0.15306  -0.00183  -0.00006  -0.00016  -0.00022   0.15284
   D33        0.39863   0.00000  -0.00040  -0.00114  -0.00154   0.39709
   D34        2.48480   0.00000  -0.00036  -0.00105  -0.00141   2.48339
   D35       -1.71472   0.00000  -0.00036  -0.00106  -0.00142  -1.71614
   D36       -3.07844   0.00000  -0.00017  -0.00086  -0.00104  -3.07947
   D37       -0.99227   0.00000  -0.00013  -0.00077  -0.00091  -0.99317
   D38        1.09140   0.00000  -0.00013  -0.00079  -0.00091   1.09048
   D39       -2.45916   0.00000   0.00035   0.00019   0.00054  -2.45862
   D40       -0.36368   0.00000   0.00036   0.00015   0.00051  -0.36317
   D41        1.73066   0.00000   0.00036   0.00018   0.00053   1.73120
   D42        0.99565   0.00000   0.00014  -0.00006   0.00008   0.99573
   D43        3.09114   0.00000   0.00015  -0.00010   0.00005   3.09119
   D44       -1.09771   0.00000   0.00015  -0.00007   0.00007  -1.09763
   D45        1.05060   0.00000   0.00000  -0.00009  -0.00009   1.05052
   D46       -1.00554   0.00000   0.00000  -0.00005  -0.00005  -1.00559
   D47       -3.11874   0.00000   0.00001  -0.00007  -0.00007  -3.11881
   D48       -1.06739   0.00000   0.00001  -0.00017  -0.00015  -1.06754
   D49       -3.12353   0.00000   0.00001  -0.00013  -0.00012  -3.12365
   D50        1.04645   0.00000   0.00002  -0.00015  -0.00013   1.04631
   D51       -3.08536   0.00000   0.00000  -0.00010  -0.00010  -3.08546
   D52        1.14168   0.00000  -0.00001  -0.00006  -0.00006   1.14162
   D53       -0.97153   0.00000   0.00000  -0.00008  -0.00008  -0.97161
   D54       -3.13106   0.00000  -0.00005  -0.00030  -0.00036  -3.13142
   D55       -1.03657   0.00000  -0.00005  -0.00028  -0.00032  -1.03689
   D56        1.03584  -0.00001  -0.00004  -0.00032  -0.00036   1.03548
   D57       -3.14067   0.00000  -0.00006   0.00000  -0.00006  -3.14073
   D58       -1.05934   0.00000  -0.00006   0.00002  -0.00004  -1.05938
   D59        1.06018   0.00000  -0.00006  -0.00001  -0.00007   1.06011
         Item               Value     Threshold  Converged?
 Maximum Force            0.000028     0.000450     YES
 RMS     Force            0.000007     0.000300     YES
 Maximum Displacement     0.002157     0.001800     NO 
 RMS     Displacement     0.000444     0.001200     YES
 Predicted change in Energy=-7.069194D-09
 GradGradGradGradGradGradGradGradGradGradGradGradGradGradGradGradGradGrad

                          Input orientation:                          
 ---------------------------------------------------------------------
 Center     Atomic      Atomic             Coordinates (Angstroms)
 Number     Number       Type             X           Y           Z
 ---------------------------------------------------------------------
      1          6           0        0.940941    3.059069    0.851210
      2          6           0        0.133908    2.247681   -0.147157
      3          8           0       -0.781918    2.752426   -0.777932
      4          7           0        0.523643    0.928501   -0.423361
      5          6           0       -0.558314    0.059845   -0.876006
      6          6           0       -1.794338    0.096144    0.061057
      7          8           0       -1.847078    0.857343    1.017445
      8          7           0       -2.715373   -0.914726   -0.112074
      9          6           0       -2.851131   -1.702769   -1.328266
     10          6           0       -3.877730   -0.943361    0.768218
     11          1           0        0.546769    4.074329    0.825476
     12          1           0        2.008177    3.083774    0.609688
     13          1           0        0.826382    2.658773    1.863413
     14          1           0       -0.868903    0.362414   -1.881682
     15          1           0       -0.174222   -0.959701   -0.943720
     16          1           0       -1.935096   -1.696107   -1.916088
     17          1           0       -3.077653   -2.743177   -1.069065
     18          1           0       -3.666953   -1.327837   -1.962736
     19          1           0       -4.105235   -1.980252    1.038165
     20          1           0       -3.649802   -0.367932    1.663182
     21          1           0       -4.761686   -0.509305    0.281316
     22          6           0        1.533637    0.242258    0.391008
     23          1           0        2.025332    0.945977    1.059731
     24          1           0        1.071395   -0.523642    1.027371
     25          6           0        2.606931   -0.403585   -0.485064
     26          1           0        3.112074    0.372786   -1.083160
     27          1           0        2.157405   -1.116563   -1.198250
     28          8           0        3.515155   -1.063216    0.373300
     29          6           0        4.570872   -1.694507   -0.320277
     30          1           0        5.210494   -2.171476    0.425883
     31          1           0        4.200558   -2.464416   -1.015596
     32          1           0        5.171969   -0.973180   -0.895599
 ---------------------------------------------------------------------
                    Distance matrix (angstroms):
                    1          2          3          4          5
     1  C    0.000000
     2  C    1.518680   0.000000
     3  O    2.390894   1.221221   0.000000
     4  N    2.517536   1.403003   2.270883   0.000000
     5  C    3.771788   2.407700   2.703629   1.459480   0.000000
     6  C    4.109138   2.896653   2.963905   2.510083   1.551502
     7  O    3.556442   2.685823   2.819448   2.775122   2.425298
     8  N    5.485215   4.256812   4.198764   3.739734   2.487224
     9  C    6.465680   5.090337   4.943002   4.373961   2.927175
    10  C    6.264657   5.207101   5.062952   4.929079   3.837762
    11  H    1.089398   2.110239   2.466527   3.384725   4.498036
    12  H    1.094502   2.187406   3.133673   2.813580   4.235364
    13  H    1.094493   2.165850   3.093881   2.883544   4.021968
    14  H    4.244547   2.751080   2.634006   2.094359   1.095170
    15  H    4.540471   3.319151   3.765192   2.079206   1.091599
    16  H    6.208158   4.792010   4.734413   3.893867   2.461842
    17  H    7.314548   6.006056   5.962953   5.183386   3.773761
    18  H    6.956718   5.525144   5.135732   5.002183   3.573553
    19  H    7.133975   6.103339   6.061426   5.658924   4.517377
    20  H    5.786066   4.943200   4.890852   4.842731   4.023402
    21  H    6.751150   5.634839   5.253518   5.522550   4.396778
    22  C    2.915047   2.504114   3.609592   1.467724   2.452521
    23  H    2.384227   2.593935   3.810632   2.110672   3.347766
    24  H    3.589410   3.152559   4.174507   2.124471   2.572791
    25  C    4.068307   3.641324   4.640094   2.473530   3.222791
    26  H    3.958752   3.641539   4.573732   2.728393   3.689525
    27  H    4.807907   4.064170   4.877024   2.729820   2.977064
    28  O    4.883463   4.760856   5.860827   3.681134   4.406267
    29  C    6.094691   5.937800   6.974025   4.823988   5.449325
    30  H    6.765248   6.754928   7.848756   5.683102   6.320827
    31  H    6.679742   6.284559   7.217824   5.038088   5.388715
    32  H    6.100161   6.026290   7.024440   5.044436   5.822687
                    6          7          8          9         10
     6  C    0.000000
     7  O    1.223472   0.000000
     8  N    1.378454   2.273757   0.000000
     9  C    2.506614   3.614505   1.455529   0.000000
    10  C    2.433345   2.725472   1.458358   2.454761   0.000000
    11  H    4.678790   4.014518   6.034172   7.039828   6.690043
    12  H    4.866831   4.470598   6.230639   7.090806   7.133502
    13  H    4.084572   3.332897   5.405226   6.537122   6.025237
    14  H    2.168309   3.099470   2.858680   2.915558   4.216641
    15  H    2.179256   3.153769   2.674154   2.804615   4.080069
    16  H    2.672279   3.890175   2.115149   1.088439   3.397934
    17  H    3.314485   4.339537   2.095307   1.095877   2.693524
    18  H    3.103248   4.119276   2.121584   1.099405   2.765929
    19  H    3.256747   3.626520   2.095260   2.692540   1.095341
    20  H    2.494978   2.273343   2.079344   3.371709   1.088131
    21  H    3.036484   3.302204   2.122857   2.768634   1.098570
    22  C    3.347481   3.492847   4.432356   5.095607   5.552555
    23  H    4.038496   3.873655   5.225861   6.041380   6.204895
    24  H    3.087122   3.228731   3.973775   4.724995   4.973647
    25  C    4.463087   4.866792   5.359786   5.673562   6.626682
    26  H    5.045655   5.407450   6.046472   6.318846   7.349640
    27  H    4.321202   4.984124   4.996447   5.044400   6.349791
    28  O    5.443558   5.732103   6.251169   6.620721   7.404396
    29  C    6.623273   7.035020   7.330809   7.490142   8.551486
    30  H    7.371761   7.702792   8.042896   8.263566   9.177215
    31  H    6.607149   7.193138   7.144787   7.099590   8.411559
    32  H    7.112530   7.501838   7.926380   8.067815   9.201426
                   11         12         13         14         15
    11  H    0.000000
    12  H    1.778617   0.000000
    13  H    1.777440   1.774568   0.000000
    14  H    4.807405   4.678708   4.708821   0.000000
    15  H    5.384361   4.850323   4.687703   1.763617   0.000000
    16  H    6.853740   6.691502   6.393384   2.318504   2.142071
    17  H    7.950101   7.914368   7.281619   3.896616   3.409751
    18  H    7.396823   7.634578   7.121976   3.269955   3.656923
    19  H    7.638345   7.949953   6.820735   4.948478   4.519099
    20  H    6.168196   6.710950   5.407148   4.564303   4.384721
    21  H    7.034593   7.671316   6.615606   4.537865   4.769527
    22  C    3.980885   2.889156   2.916802   3.309343   2.478505
    23  H    3.468084   2.184721   2.239879   4.167620   3.533195
    24  H    4.632206   3.750396   3.299510   3.607276   2.372111
    25  C    5.100343   3.703871   4.250146   3.823444   2.873055
    26  H    4.891329   3.381387   4.374062   4.060286   3.548903
    27  H    5.799567   4.575340   5.039699   3.437004   2.350719
    28  O    5.950643   4.418641   4.827333   5.131991   3.918771
    29  C    7.126404   5.501292   6.143351   6.021633   4.841956
    30  H    7.805132   6.156807   6.679689   6.978862   5.686772
    31  H    7.713294   6.183081   6.776491   5.868603   4.626882
    32  H    7.059173   5.360443   6.299791   6.264847   5.346425
                   16         17         18         19         20
    16  H    0.000000
    17  H    1.766137   0.000000
    18  H    1.771194   1.774573   0.000000
    19  H    3.676663   2.465441   3.102120   0.000000
    20  H    4.185144   3.665285   3.750866   1.788194   0.000000
    21  H    3.771829   3.106394   2.627586   1.779728   1.779276
    22  C    4.594785   5.684067   5.920426   6.095509   5.372038
    23  H    5.614365   6.646961   6.834300   6.793169   5.856421
    24  H    4.367793   5.151308   5.660337   5.377669   4.766362
    25  C    4.934415   6.174888   6.511481   7.061111   6.615357
    26  H    5.517972   6.929801   7.044216   7.882027   7.335804
    27  H    4.195203   5.483465   5.878114   6.705831   6.517046
    28  O    5.945341   6.954696   7.557101   7.704112   7.313263
    29  C    6.698823   7.756308   8.407965   8.786458   8.559987
    30  H    7.534604   8.441273   9.231809   9.337787   9.126255
    31  H    6.248794   7.283743   8.005412   8.569629   8.555655
    32  H    7.216259   8.439150   8.910169   9.529961   9.205288
                   21         22         23         24         25
    21  H    0.000000
    22  C    6.340975   0.000000
    23  H    6.984797   1.088199   0.000000
    24  H    5.880616   1.097828   1.752377   0.000000
    25  C    7.409119   1.528586   2.132127   2.158644   0.000000
    26  H    8.039650   2.163717   2.470128   3.069575   1.102560
    27  H    7.101528   2.182022   3.061044   2.546441   1.104104
    28  O    8.295865   2.372971   2.593765   2.586679   1.413072
    29  C    9.426731   3.671755   3.918718   3.928538   2.355992
    30  H   10.110790   4.398478   4.501725   4.495473   3.276248
    31  H    9.264246   4.051800   4.546358   4.210935   2.658596
    32  H   10.013881   4.045999   4.172266   4.551330   2.659398
                   26         27         28         29         30
    26  H    0.000000
    27  H    1.772794   0.000000
    28  O    2.084671   2.077523   0.000000
    29  C    2.642685   2.632428   1.412131   0.000000
    30  H    3.626823   3.615522   2.026124   1.092415   0.000000
    31  H    3.039585   2.454494   2.088581   1.101527   1.784277
    32  H    2.467787   3.033110   2.088838   1.101194   1.784296
                   31         32
    31  H    0.000000
    32  H    1.783767   0.000000
 Stoichiometry    C9H18N2O3
 Framework group  C1[X(C9H18N2O3)]
 Deg. of freedom    90
 Full point group                 C1      NOp   1
 Largest Abelian subgroup         C1      NOp   1
 Largest concise Abelian subgroup C1      NOp   1
                         Standard orientation:                         
 ---------------------------------------------------------------------
 Center     Atomic      Atomic             Coordinates (Angstroms)
 Number     Number       Type             X           Y           Z
 ---------------------------------------------------------------------
      1          6           0       -0.880381    2.998153   -0.463100
      2          6           0       -0.093366    2.022918    0.394753
      3          8           0        0.829602    2.403000    1.098351
      4          7           0       -0.509897    0.684668    0.458048
      5          6           0        0.553062   -0.266112    0.768240
      6          6           0        1.793313   -0.106431   -0.150149
      7          8           0        1.864751    0.795482   -0.973759
      8          7           0        2.693726   -1.150106   -0.138619
      9          6           0        2.809181   -2.123437    0.937421
     10          6           0        3.858829   -1.062053   -1.011310
     11          1           0       -0.466562    3.988456   -0.276438
     12          1           0       -1.947892    3.005534   -0.221645
     13          1           0       -0.769596    2.761089   -1.525852
     14          1           0        0.865458   -0.132955    1.809429
     15          1           0        0.148862   -1.275653    0.673174
     16          1           0        1.891097   -2.191750    1.518071
     17          1           0        3.016379   -3.113938    0.516799
     18          1           0        3.629615   -1.870096    1.624006
     19          1           0        4.067123   -2.047398   -1.441984
     20          1           0        3.645780   -0.347667   -1.803959
     21          1           0        4.749131   -0.728321   -0.460998
     22          6           0       -1.529821    0.156381   -0.455671
     23          1           0       -2.004989    0.966819   -1.004836
     24          1           0       -1.080074   -0.508071   -1.204976
     25          6           0       -2.619035   -0.598601    0.306032
     26          1           0       -3.111317    0.083106    1.019176
     27          1           0       -2.186388   -1.424383    0.897594
     28          8           0       -3.536513   -1.095673   -0.646819
     29          6           0       -4.607136   -1.807725   -0.062983
     30          1           0       -5.252949   -2.147608   -0.875864
     31          1           0       -4.254725   -2.685299    0.501846
     32          1           0       -5.196337   -1.174836    0.618867
 ---------------------------------------------------------------------
 Rotational constants (GHZ):      0.8492561      0.3758620      0.2921911
 Standard basis: 6-31G(d,p) (6D, 7F)
 There are   300 symmetry adapted basis functions of A   symmetry.
 Integral buffers will be    131072 words long.
 Raffenetti 2 integral format.
 Two-electron integral symmetry is turned on.
   300 basis functions,   518 primitive gaussians,   300 cartesian basis functions
    55 alpha electrons       55 beta electrons
       nuclear repulsion energy       963.7660915326 Hartrees.
 NAtoms=   32 NActive=   32 NUniq=   32 SFac= 1.00D+00 NAtFMM=   60 NAOKFM=F Big=F
 One-electron integrals computed using PRISM.
 NBasis=   300 RedAO= T  NBF=   300
 NBsUse=   300 1.00D-06 NBFU=   300
 Initial guess read from the read-write file.
 B after Tr=     0.000000    0.000000    0.000000
         Rot=    1.000000    0.000000    0.000000    0.000000 Ang=   0.00 deg.
 Initial guess orbital symmetries:
       Occupied  (A) (A) (A) (A) (A) (A) (A) (A) (A) (A) (A) (A)
                 (A) (A) (A) (A) (A) (A) (A) (A) (A) (A) (A) (A)
                 (A) (A) (A) (A) (A) (A) (A) (A) (A) (A) (A) (A)
                 (A) (A) (A) (A) (A) (A) (A) (A) (A) (A) (A) (A)
                 (A) (A) (A) (A) (A) (A) (A)
       Virtual   (A) (A) (A) (A) (A) (A) (A) (A) (A) (A) (A) (A)
                 (A) (A) (A) (A) (A) (A) (A) (A) (A) (A) (A) (A)
                 (A) (A) (A) (A) (A) (A) (A) (A) (A) (A) (A) (A)
                 (A) (A) (A) (A) (A) (A) (A) (A) (A) (A) (A) (A)
                 (A) (A) (A) (A) (A) (A) (A) (A) (A) (A) (A) (A)
                 (A) (A) (A) (A) (A) (A) (A) (A) (A) (A) (A) (A)
                 (A) (A) (A) (A) (A) (A) (A) (A) (A) (A) (A) (A)
                 (A) (A) (A) (A) (A) (A) (A) (A) (A) (A) (A) (A)
                 (A) (A) (A) (A) (A) (A) (A) (A) (A) (A) (A) (A)
                 (A) (A) (A) (A) (A) (A) (A) (A) (A) (A) (A) (A)
                 (A) (A) (A) (A) (A) (A) (A) (A) (A) (A) (A) (A)
                 (A) (A) (A) (A) (A) (A) (A) (A) (A) (A) (A) (A)
                 (A) (A) (A) (A) (A) (A) (A) (A) (A) (A) (A) (A)
                 (A) (A) (A) (A) (A) (A) (A) (A) (A) (A) (A) (A)
                 (A) (A) (A) (A) (A) (A) (A) (A) (A) (A) (A) (A)
                 (A) (A) (A) (A) (A) (A) (A) (A) (A) (A) (A) (A)
                 (A) (A) (A) (A) (A) (A) (A) (A) (A) (A) (A) (A)
                 (A) (A) (A) (A) (A) (A) (A) (A) (A) (A) (A) (A)
                 (A) (A) (A) (A) (A) (A) (A) (A) (A) (A) (A) (A)
                 (A) (A) (A) (A) (A) (A) (A) (A) (A) (A) (A) (A)
                 (A) (A) (A) (A) (A)
