 Entering Gaussian System, Link 0=/data/opt/apps/g09-C01/g09
 Initial command:
 /data/opt/apps/g09-C01/l1.exe /tmp/g09-tuu61186-1098595c21e64fea8x/Gau-1098662.inp -scrdir=/tmp/g09-tuu61186-1098595c21e64fea8x/
 Entering Link 1 = /data/opt/apps/g09-C01/l1.exe PID=   1098672.
  
 Copyright (c) 1988,1990,1992,1993,1995,1998,2003,2009,2011,
            Gaussian, Inc.  All Rights Reserved.
  
 This is part of the Gaussian(R) 09 program.  It is based on
 the Gaussian(R) 03 system (copyright 2003, Gaussian, Inc.),
 the Gaussian(R) 98 system (copyright 1998, Gaussian, Inc.),
 the Gaussian(R) 94 system (copyright 1995, Gaussian, Inc.),
 the Gaussian 92(TM) system (copyright 1992, Gaussian, Inc.),
 the Gaussian 90(TM) system (copyright 1990, Gaussian, Inc.),
 the Gaussian 88(TM) system (copyright 1988, Gaussian, Inc.),
 the Gaussian 86(TM) system (copyright 1986, Carnegie Mellon
 University), and the Gaussian 82(TM) system (copyright 1983,
 Carnegie Mellon University). Gaussian is a federally registered
 trademark of Gaussian, Inc.
  
 This software contains proprietary and confidential information,
 including trade secrets, belonging to Gaussian, Inc.
  
 This software is provided under written license and may be
 used, copied, transmitted, or stored only in accord with that
 written license.
  
 The following legend is applicable only to US Government
 contracts under FAR:
  
                    RESTRICTED RIGHTS LEGEND
  
 Use, reproduction and disclosure by the US Government is
 subject to restrictions as set forth in subparagraphs (a)
 and (c) of the Commercial Computer Software - Restricted
 Rights clause in FAR 52.227-19.
  
 Gaussian, Inc.
 340 Quinnipiac St., Bldg. 40, Wallingford CT 06492
  
  
 ---------------------------------------------------------------
 Warning -- This program may not be used in any manner that
 competes with the business of Gaussian, Inc. or will provide
 assistance to any competitor of Gaussian, Inc.  The licensee
 of this program is prohibited from giving any competitor of
 Gaussian, Inc. access to this program.  By using this program,
 the user acknowledges that Gaussian, Inc. is engaged in the
 business of creating and licensing software in the field of
 computational chemistry and represents and warrants to the
 licensee that it is not a competitor of Gaussian, Inc. and that
 it will not use this program in any manner prohibited above.
 ---------------------------------------------------------------
  

 Cite this work as:
 Gaussian 09, Revision C.01,
 M. J. Frisch, G. W. Trucks, H. B. Schlegel, G. E. Scuseria, 
 M. A. Robb, J. R. Cheeseman, G. Scalmani, V. Barone, B. Mennucci, 
 G. A. Petersson, H. Nakatsuji, M. Caricato, X. Li, H. P. Hratchian, 
 A. F. Izmaylov, J. Bloino, G. Zheng, J. L. Sonnenberg, M. Hada, 
 M. Ehara, K. Toyota, R. Fukuda, J. Hasegawa, M. Ishida, T. Nakajima, 
 Y. Honda, O. Kitao, H. Nakai, T. Vreven, J. A. Montgomery, Jr., 
 J. E. Peralta, F. Ogliaro, M. Bearpark, J. J. Heyd, E. Brothers, 
 K. N. Kudin, V. N. Staroverov, T. Keith, R. Kobayashi, J. Normand, 
 K. Raghavachari, A. Rendell, J. C. Burant, S. S. Iyengar, J. Tomasi, 
 M. Cossi, N. Rega, J. M. Millam, M. Klene, J. E. Knox, J. B. Cross, 
 V. Bakken, C. Adamo, J. Jaramillo, R. Gomperts, R. E. Stratmann, 
 O. Yazyev, A. J. Austin, R. Cammi, C. Pomelli, J. W. Ochterski, 
 R. L. Martin, K. Morokuma, V. G. Zakrzewski, G. A. Voth, 
 P. Salvador, J. J. Dannenberg, S. Dapprich, A. D. Daniels, 
 O. Farkas, J. B. Foresman, J. V. Ortiz, J. Cioslowski, 
 and D. J. Fox, Gaussian, Inc., Wallingford CT, 2010.
 
 ******************************************
 Gaussian 09:  EM64L-G09RevC.01 23-Sep-2011
                24-Apr-2026 
 ******************************************
 %nprocshared=8
 Will use up to    8 processors via shared memory.
 %mem=14GB
 -----------------------------------
 # opt=modredundant b3lyp/6-31g(d,p)
 -----------------------------------
 1/14=-1,18=120,19=15,26=3,38=1/1,3;
 2/9=110,12=2,17=6,18=5,40=1/2;
 3/5=1,6=6,7=101,11=2,16=1,25=1,30=1,71=1,74=-5/1,2,3;
 4//1;
 5/5=2,38=5/2;
 6/7=2,8=2,9=2,10=2,28=1/1;
 7//1,2,3,16;
 1/14=-1,18=20,19=15/3(2);
 2/9=110/2;
 99//99;
 2/9=110/2;
 3/5=1,6=6,7=101,11=2,16=1,25=1,30=1,71=1,74=-5/1,2,3;
 4/5=5,16=3/1;
 5/5=2,38=5/2;
 7//1,2,3,16;
 1/14=-1,18=20,19=15/3(-5);
 2/9=110/2;
 6/7=2,8=2,9=2,10=2,19=2,28=1/1;
 99/9=1/99;
 ---------------
 QM dihedral opt
 ---------------
 Charge =  0 Multiplicity = 1
 Symbolic Z-Matrix:
 C                     2.411     2.31366  -0.46343 
 C                     0.92993   2.26676  -0.11932 
 O                     0.21013   3.24226  -0.31454 
 N                     0.42311   1.08624   0.39366 
 C                    -0.92505   1.14813   0.97548 
 C                    -1.6974   -0.16513   0.81451 
 O                    -1.77658  -0.9446    1.76203 
 N                    -2.26712  -0.42543  -0.40618 
 C                    -2.20117   0.44292  -1.57305 
 C                    -3.02025  -1.65913  -0.58422 
 H                     2.5736    3.2014   -1.07379 
 H                     2.75662   1.42909  -1.0039 
 H                     3.01423   2.4048    0.44684 
 H                    -0.85639   1.30233   2.0582 
 H                    -1.43036   2.00877   0.54097 
 H                    -1.58897   1.32313  -1.38985 
 H                    -1.76846  -0.1008   -2.42245 
 H                    -3.20743   0.77161  -1.86393 
 H                    -2.57314  -2.27322  -1.37624 
 H                    -3.00834  -2.20921   0.35496 
 H                    -4.05658  -1.43701  -0.86743 
 C                     1.2786   -0.02753   0.82287 
 H                     2.27735   0.32936   1.08419 
 H                     0.84606  -0.46773   1.72484 
 C                     1.41154  -1.12121  -0.23937 
 H                     1.7732   -0.69266  -1.19019 
 H                     0.42982  -1.57757  -0.44079 
 O                     2.32312  -2.07528   0.26327 
 C                     2.48762  -3.18789  -0.59096 
 H                     3.20271  -3.8609   -0.11264 
 H                     1.54024  -3.727    -0.74573 
 H                     2.88167  -2.89272  -1.57642 
 
 The following ModRedundant input section has been read:
 D       2       4       5       6 F                                           
 D       4       5       6       8 S  36 10.000                                

 GradGradGradGradGradGradGradGradGradGradGradGradGradGradGradGradGradGrad
 Berny optimization.
 Initialization pass.
                           ----------------------------
                           !    Initial Parameters    !
                           ! (Angstroms and Degrees)  !
 --------------------------                            --------------------------
 ! Name  Definition              Value          Derivative Info.                !
 --------------------------------------------------------------------------------
 ! R1    R(1,2)                  1.5212         estimate D2E/DX2                !
 ! R2    R(1,11)                 1.0895         estimate D2E/DX2                !
 ! R3    R(1,12)                 1.0927         estimate D2E/DX2                !
 ! R4    R(1,13)                 1.0958         estimate D2E/DX2                !
 ! R5    R(2,3)                  1.2279         estimate D2E/DX2                !
 ! R6    R(2,4)                  1.3833         estimate D2E/DX2                !
 ! R7    R(4,5)                  1.4697         estimate D2E/DX2                !
 ! R8    R(4,22)                 1.4685         estimate D2E/DX2                !
 ! R9    R(5,6)                  1.532          estimate D2E/DX2                !
 ! R10   R(5,14)                 1.0958         estimate D2E/DX2                !
 ! R11   R(5,15)                 1.0885         estimate D2E/DX2                !
 ! R12   R(6,7)                  1.2295         estimate D2E/DX2                !
 ! R13   R(6,8)                  1.372          estimate D2E/DX2                !
 ! R14   R(8,9)                  1.456          estimate D2E/DX2                !
 ! R15   R(8,10)                 1.4563         estimate D2E/DX2                !
 ! R16   R(9,16)                 1.0877         estimate D2E/DX2                !
 ! R17   R(9,17)                 1.0974         estimate D2E/DX2                !
 ! R18   R(9,18)                 1.0978         estimate D2E/DX2                !
 ! R19   R(10,19)                1.0974         estimate D2E/DX2                !
 ! R20   R(10,20)                1.0885         estimate D2E/DX2                !
 ! R21   R(10,21)                1.097          estimate D2E/DX2                !
 ! R22   R(22,23)                1.0923         estimate D2E/DX2                !
 ! R23   R(22,24)                1.0929         estimate D2E/DX2                !
 ! R24   R(22,25)                1.5304         estimate D2E/DX2                !
 ! R25   R(25,26)                1.1039         estimate D2E/DX2                !
 ! R26   R(25,27)                1.1012         estimate D2E/DX2                !
 ! R27   R(25,28)                1.412          estimate D2E/DX2                !
 ! R28   R(28,29)                1.4123         estimate D2E/DX2                !
 ! R29   R(29,30)                1.0923         estimate D2E/DX2                !
 ! R30   R(29,31)                1.101          estimate D2E/DX2                !
 ! R31   R(29,32)                1.1016         estimate D2E/DX2                !
 ! A1    A(2,1,11)             107.2859         estimate D2E/DX2                !
 ! A2    A(2,1,12)             113.2574         estimate D2E/DX2                !
 ! A3    A(2,1,13)             110.5246         estimate D2E/DX2                !
 ! A4    A(11,1,12)            109.5911         estimate D2E/DX2                !
 ! A5    A(11,1,13)            108.3872         estimate D2E/DX2                !
 ! A6    A(12,1,13)            107.7031         estimate D2E/DX2                !
 ! A7    A(1,2,3)              120.6807         estimate D2E/DX2                !
 ! A8    A(1,2,4)              117.8324         estimate D2E/DX2                !
 ! A9    A(3,2,4)              121.4759         estimate D2E/DX2                !
 ! A10   A(2,4,5)              116.5482         estimate D2E/DX2                !
 ! A11   A(2,4,22)             122.8323         estimate D2E/DX2                !
 ! A12   A(5,4,22)             116.7834         estimate D2E/DX2                !
 ! A13   A(4,5,6)              112.6291         estimate D2E/DX2                !
 ! A14   A(4,5,14)             109.8537         estimate D2E/DX2                !
 ! A15   A(4,5,15)             107.5243         estimate D2E/DX2                !
 ! A16   A(6,5,14)             104.8348         estimate D2E/DX2                !
 ! A17   A(6,5,15)             113.6896         estimate D2E/DX2                !
 ! A18   A(14,5,15)            108.1946         estimate D2E/DX2                !
 ! A19   A(5,6,7)              119.6662         estimate D2E/DX2                !
 ! A20   A(5,6,8)              117.7399         estimate D2E/DX2                !
 ! A21   A(7,6,8)              122.5908         estimate D2E/DX2                !
 ! A22   A(6,8,9)              125.5255         estimate D2E/DX2                !
 ! A23   A(6,8,10)             118.9619         estimate D2E/DX2                !
 ! A24   A(9,8,10)             115.5099         estimate D2E/DX2                !
 ! A25   A(8,9,16)             111.9088         estimate D2E/DX2                !
 ! A26   A(8,9,17)             110.0392         estimate D2E/DX2                !
 ! A27   A(8,9,18)             110.4499         estimate D2E/DX2                !
 ! A28   A(16,9,17)            108.021          estimate D2E/DX2                !
 ! A29   A(16,9,18)            108.5566         estimate D2E/DX2                !
 ! A30   A(17,9,18)            107.7383         estimate D2E/DX2                !
 ! A31   A(8,10,19)            110.5836         estimate D2E/DX2                !
 ! A32   A(8,10,20)            108.4796         estimate D2E/DX2                !
 ! A33   A(8,10,21)            110.3992         estimate D2E/DX2                !
 ! A34   A(19,10,20)           109.6008         estimate D2E/DX2                !
 ! A35   A(19,10,21)           108.1712         estimate D2E/DX2                !
 ! A36   A(20,10,21)           109.5972         estimate D2E/DX2                !
 ! A37   A(4,22,23)            110.7795         estimate D2E/DX2                !
 ! A38   A(4,22,24)            108.4299         estimate D2E/DX2                !
 ! A39   A(4,22,25)            112.938          estimate D2E/DX2                !
 ! A40   A(23,22,24)           107.2195         estimate D2E/DX2                !
 ! A41   A(23,22,25)           108.6696         estimate D2E/DX2                !
 ! A42   A(24,22,25)           108.6246         estimate D2E/DX2                !
 ! A43   A(22,25,26)           110.4189         estimate D2E/DX2                !
 ! A44   A(22,25,27)           110.2229         estimate D2E/DX2                !
 ! A45   A(22,25,28)           106.9693         estimate D2E/DX2                !
 ! A46   A(26,25,27)           107.1831         estimate D2E/DX2                !
 ! A47   A(26,25,28)           110.9415         estimate D2E/DX2                !
 ! A48   A(27,25,28)           111.139          estimate D2E/DX2                !
 ! A49   A(25,28,29)           113.0895         estimate D2E/DX2                !
 ! A50   A(28,29,30)           107.264          estimate D2E/DX2                !
 ! A51   A(28,29,31)           111.7496         estimate D2E/DX2                !
 ! A52   A(28,29,32)           111.8179         estimate D2E/DX2                !
 ! A53   A(30,29,31)           108.8565         estimate D2E/DX2                !
 ! A54   A(30,29,32)           108.8236         estimate D2E/DX2                !
 ! A55   A(31,29,32)           108.2553         estimate D2E/DX2                !
 ! D1    D(11,1,2,3)           -12.8888         estimate D2E/DX2                !
 ! D2    D(11,1,2,4)           165.9226         estimate D2E/DX2                !
 ! D3    D(12,1,2,3)          -133.9513         estimate D2E/DX2                !
 ! D4    D(12,1,2,4)            44.8601         estimate D2E/DX2                !
 ! D5    D(13,1,2,3)           105.0971         estimate D2E/DX2                !
 ! D6    D(13,1,2,4)           -76.0916         estimate D2E/DX2                !
 ! D7    D(1,2,4,5)            167.6219         estimate D2E/DX2                !
 ! D8    D(1,2,4,22)            10.4183         estimate D2E/DX2                !
 ! D9    D(3,2,4,5)            -13.5768         estimate D2E/DX2                !
 ! D10   D(3,2,4,22)          -170.7803         estimate D2E/DX2                !
 ! D11   D(2,4,5,6)            148.6699         Frozen                          !
 ! D12   D(2,4,5,14)           -94.8789         estimate D2E/DX2                !
 ! D13   D(2,4,5,15)            22.6471         estimate D2E/DX2                !
 ! D14   D(22,4,5,6)           -52.7187         estimate D2E/DX2                !
 ! D15   D(22,4,5,14)           63.7325         estimate D2E/DX2                !
 ! D16   D(22,4,5,15)         -178.7415         estimate D2E/DX2                !
 ! D17   D(2,4,22,23)           24.0425         estimate D2E/DX2                !
 ! D18   D(2,4,22,24)          141.4421         estimate D2E/DX2                !
 ! D19   D(2,4,22,25)          -98.1228         estimate D2E/DX2                !
 ! D20   D(5,4,22,23)         -133.1114         estimate D2E/DX2                !
 ! D21   D(5,4,22,24)          -15.7117         estimate D2E/DX2                !
 ! D22   D(5,4,22,25)          104.7233         estimate D2E/DX2                !
 ! D23   D(4,5,6,7)            100.5645         estimate D2E/DX2                !
 ! D24   D(4,5,6,8)            -78.8203         Scan                            !
 ! D25   D(14,5,6,7)           -18.8447         estimate D2E/DX2                !
 ! D26   D(14,5,6,8)           161.7706         estimate D2E/DX2                !
 ! D27   D(15,5,6,7)          -136.8104         estimate D2E/DX2                !
 ! D28   D(15,5,6,8)            43.8048         estimate D2E/DX2                !
 ! D29   D(5,6,8,9)              0.0615         estimate D2E/DX2                !
 ! D30   D(5,6,8,10)          -179.3144         estimate D2E/DX2                !
 ! D31   D(7,6,8,9)           -179.3039         estimate D2E/DX2                !
 ! D32   D(7,6,8,10)             1.3202         estimate D2E/DX2                !
 ! D33   D(6,8,9,16)             3.1928         estimate D2E/DX2                !
 ! D34   D(6,8,9,17)           123.3006         estimate D2E/DX2                !
 ! D35   D(6,8,9,18)          -117.875          estimate D2E/DX2                !
 ! D36   D(10,8,9,16)         -177.4122         estimate D2E/DX2                !
 ! D37   D(10,8,9,17)          -57.3044         estimate D2E/DX2                !
 ! D38   D(10,8,9,18)           61.52           estimate D2E/DX2                !
 ! D39   D(6,8,10,19)         -119.9446         estimate D2E/DX2                !
 ! D40   D(6,8,10,20)            0.2761         estimate D2E/DX2                !
 ! D41   D(6,8,10,21)          120.3808         estimate D2E/DX2                !
 ! D42   D(9,8,10,19)           60.6182         estimate D2E/DX2                !
 ! D43   D(9,8,10,20)         -179.1612         estimate D2E/DX2                !
 ! D44   D(9,8,10,21)          -59.0564         estimate D2E/DX2                !
 ! D45   D(4,22,25,26)          55.3016         estimate D2E/DX2                !
 ! D46   D(4,22,25,27)         -62.933          estimate D2E/DX2                !
 ! D47   D(4,22,25,28)         176.1212         estimate D2E/DX2                !
 ! D48   D(23,22,25,26)        -68.0398         estimate D2E/DX2                !
 ! D49   D(23,22,25,27)        173.7257         estimate D2E/DX2                !
 ! D50   D(23,22,25,28)         52.7798         estimate D2E/DX2                !
 ! D51   D(24,22,25,26)        175.6253         estimate D2E/DX2                !
 ! D52   D(24,22,25,27)         57.3908         estimate D2E/DX2                !
 ! D53   D(24,22,25,28)        -63.5551         estimate D2E/DX2                !
 ! D54   D(22,25,28,29)        176.7711         estimate D2E/DX2                !
 ! D55   D(26,25,28,29)        -62.7422         estimate D2E/DX2                !
 ! D56   D(27,25,28,29)         56.4087         estimate D2E/DX2                !
 ! D57   D(25,28,29,30)       -179.7883         estimate D2E/DX2                !
 ! D58   D(25,28,29,31)        -60.5546         estimate D2E/DX2                !
 ! D59   D(25,28,29,32)         60.9787         estimate D2E/DX2                !
 --------------------------------------------------------------------------------
 Trust Radius=3.00D-01 FncErr=1.00D-07 GrdErr=1.00D-06
 Number of optimizations in scan=  37
 Number of steps in this run=    155 maximum allowed number of steps=    192.
 GradGradGradGradGradGradGradGradGradGradGradGradGradGradGradGradGradGrad

                          Input orientation:                          
 ---------------------------------------------------------------------
 Center     Atomic      Atomic             Coordinates (Angstroms)
 Number     Number       Type             X           Y           Z
 ---------------------------------------------------------------------
      1          6           0        2.411001    2.313661   -0.463432
      2          6           0        0.929926    2.266762   -0.119319
      3          8           0        0.210131    3.242256   -0.314537
      4          7           0        0.423110    1.086241    0.393655
      5          6           0       -0.925045    1.148132    0.975482
      6          6           0       -1.697397   -0.165126    0.814506
      7          8           0       -1.776583   -0.944600    1.762025
      8          7           0       -2.267122   -0.425428   -0.406182
      9          6           0       -2.201173    0.442921   -1.573047
     10          6           0       -3.020251   -1.659126   -0.584222
     11          1           0        2.573600    3.201399   -1.073794
     12          1           0        2.756615    1.429085   -1.003900
     13          1           0        3.014226    2.404803    0.446838
     14          1           0       -0.856388    1.302331    2.058197
     15          1           0       -1.430360    2.008775    0.540965
     16          1           0       -1.588965    1.323127   -1.389850
     17          1           0       -1.768463   -0.100802   -2.422446
     18          1           0       -3.207426    0.771607   -1.863926
     19          1           0       -2.573141   -2.273220   -1.376242
     20          1           0       -3.008336   -2.209211    0.354958
     21          1           0       -4.056577   -1.437007   -0.867427
     22          6           0        1.278598   -0.027528    0.822868
     23          1           0        2.277348    0.329360    1.084187
     24          1           0        0.846060   -0.467734    1.724836
     25          6           0        1.411541   -1.121207   -0.239372
     26          1           0        1.773199   -0.692663   -1.190188
     27          1           0        0.429820   -1.577567   -0.440790
     28          8           0        2.323119   -2.075280    0.263269
     29          6           0        2.487621   -3.187885   -0.590964
     30          1           0        3.202714   -3.860895   -0.112636
     31          1           0        1.540237   -3.726995   -0.745734
     32          1           0        2.881665   -2.892722   -1.576419
 ---------------------------------------------------------------------
                    Distance matrix (angstroms):
                    1          2          3          4          5
     1  C    0.000000
     2  C    1.521248   0.000000
     3  O    2.393384   1.227926   0.000000
     4  N    2.488547   1.383342   2.279319   0.000000
     5  C    3.815512   2.427105   2.708898   1.469651   0.000000
     6  C    4.965526   3.699856   4.064930   2.497916   1.532021
     7  O    5.753676   4.601901   5.078278   3.291717   2.392341
     8  N    5.421321   4.189426   4.426860   3.187825   2.487219
     9  C    5.099320   3.904293   3.903141   3.341951   2.936124
    10  C    6.730240   5.588616   5.876363   4.511099   3.834483
    11  H    1.089522   2.118073   2.482766   3.354386   4.544882
    12  H    1.092717   2.195673   3.201155   2.741523   4.189452
    13  H    1.095801   2.164231   3.023900   2.907803   4.168518
    14  H    4.249380   2.977015   3.245095   2.110571   1.095793
    15  H    3.982188   2.464444   2.223639   2.075601   1.088510
    16  H    4.223640   2.974812   2.841848   2.699157   2.462967
    17  H    5.209154   4.265097   4.419746   3.760650   3.717137
    18  H    5.992165   4.732528   4.492706   4.286777   3.662413
    19  H    6.834791   5.870500   6.268516   4.836945   4.466819
    20  H    7.106008   5.980734   6.365944   4.757764   3.999613
    21  H    7.487342   6.256419   6.356570   5.293836   4.459344
    22  C    2.901391   2.504607   3.623093   1.468525   2.502301
    23  H    2.520008   2.649056   3.835985   2.118467   3.307193
    24  H    3.869589   3.299304   4.281060   2.089442   2.511845
    25  C    3.584333   3.424135   4.526461   2.500109   3.476407
    26  H    3.157998   3.258231   4.323602   2.737846   3.919078
    27  H    4.366606   3.890028   4.826479   2.791454   3.357219
    28  O    4.449564   4.576100   5.751067   3.690833   4.631220
    29  C    5.503557   5.692279   6.827158   4.847663   5.735947
    30  H    6.234983   6.535579   7.710452   5.697077   6.581242
    31  H    6.109619   6.057227   7.108134   5.070840   5.727745
    32  H    5.344781   5.705497   6.809361   5.075217   6.109971
                    6          7          8          9         10
     6  C    0.000000
     7  O    1.229489   0.000000
     8  N    1.372014   2.282825   0.000000
     9  C    2.514741   3.637059   1.456006   0.000000
    10  C    2.436887   2.749933   1.456335   2.463182   0.000000
    11  H    5.756786   6.644943   6.085406   5.536868   7.426678
    12  H    5.068169   5.816752   5.388360   5.086857   6.563944
    13  H    5.379508   5.991667   6.052313   5.926998   7.348028
    14  H    2.099403   2.446053   3.323926   3.966480   4.520499
    15  H    2.207256   3.214542   2.742736   2.741368   4.152987
    16  H    2.661924   3.887429   2.117769   1.087714   3.404622
    17  H    3.238371   4.268707   2.102228   1.097429   2.715587
    18  H    3.214289   4.259131   2.107625   1.097812   2.753387
    19  H    3.163916   3.499779   2.109265   2.748548   1.097413
    20  H    2.471443   2.257497   2.076202   3.376762   1.088483
    21  H    3.164223   3.514947   2.106701   2.733963   1.097048
    22  C    2.979186   3.325232   3.773727   4.250945   4.808546
    23  H    4.014454   4.303115   4.841809   5.208737   5.899341
    24  H    2.718354   2.665903   3.772921   4.581589   4.658275
    25  C    3.419100   3.768410   3.747599   4.156548   4.477618
    26  H    4.042540   4.623850   4.124351   4.151116   4.927312
    27  H    2.845314   3.181392   2.932937   3.505211   3.454014
    28  O    4.485209   4.509131   4.923463   5.493870   5.426143
    29  C    5.350401   5.362119   5.502081   6.010992   5.716100
    30  H    6.207205   6.067333   6.465888   7.060993   6.617815
    31  H    5.059993   5.003186   5.050903   5.663108   5.010012
    32  H    5.841585   6.053070   5.828122   6.079619   6.110550
                   11         12         13         14         15
    11  H    0.000000
    12  H    1.783109   0.000000
    13  H    1.772297   1.767210   0.000000
    14  H    5.018032   4.737752   4.335156   0.000000
    15  H    4.479006   4.500379   4.463188   1.769322   0.000000
    16  H    4.577635   4.363972   5.072752   3.525072   2.055071
    17  H    5.619333   4.982887   6.114324   4.782972   3.653277
    18  H    6.320479   6.061494   6.834904   4.603487   3.236055
    19  H    7.520098   6.500154   7.511737   5.246635   4.828780
    20  H    7.904052   6.951140   7.587412   4.456774   4.507329
    21  H    8.094235   7.392746   8.153714   5.128787   4.555656
    22  C    3.962364   2.764659   3.011650   2.802272   3.400655
    23  H    3.604616   2.408153   2.292742   3.422816   4.106412
    24  H    4.927399   3.833294   3.819122   2.478425   3.566053
    25  C    4.553193   2.982904   3.933476   4.036813   4.299083
    26  H    3.977173   2.345981   3.716759   4.631062   4.534032
    27  H    5.275889   3.843309   4.829732   4.024063   4.157639
    28  O    5.449204   3.751561   4.536791   4.973860   5.553848
    29  C    6.408078   4.643198   5.712487   6.193746   6.605839
    30  H    7.155110   5.383052   6.293450   6.917205   7.506370
    31  H    7.012710   5.303903   6.418241   6.236983   6.586281
    32  H    6.122569   4.361357   5.672293   6.691931   6.863057
                   16         17         18         19         20
    16  H    0.000000
    17  H    1.768063   0.000000
    18  H    1.774356   1.773036   0.000000
    19  H    3.728606   2.541938   3.148194   0.000000
    20  H    4.187646   3.700898   3.721338   1.786210   0.000000
    21  H    3.739034   3.072295   2.567498   1.777281   1.785870
    22  C    3.865657   4.452192   5.289791   4.971429   4.832855
    23  H    4.696468   5.371229   6.242571   6.029459   5.908855
    24  H    4.340253   4.916332   5.553911   4.956551   4.445861
    25  C    4.037500   3.989920   5.249455   4.300849   4.590457
    26  H    3.925229   3.796331   5.234944   4.628547   5.248854
    27  H    3.659267   3.307604   4.557795   3.221301   3.585123
    28  O    5.439336   5.277563   6.573937   5.167256   5.333925
    29  C    6.132373   5.567644   7.052061   5.202363   5.661989
    30  H    7.173949   6.647264   8.100431   6.121921   6.443900
    31  H    5.975828   5.187305   6.635366   4.408047   4.919828
    32  H    6.147741   5.489469   7.112454   5.493520   6.236146
                   21         22         23         24         25
    21  H    0.000000
    22  C    5.771293   0.000000
    23  H    6.859115   1.092318   0.000000
    24  H    5.629846   1.092894   1.759084   0.000000
    25  C    5.513120   1.530412   2.146060   2.145905   0.000000
    26  H    5.885959   2.177023   2.543910   3.067172   1.103856
    27  H    4.508828   2.172528   3.061909   2.468789   1.101186
    28  O    6.510483   2.365896   2.541318   2.627182   1.412047
    29  C    6.780010   3.667222   3.901456   3.931523   2.356422
    30  H    7.690400   4.389999   4.454989   4.521467   3.275706
    31  H    6.048403   4.026788   4.510650   4.148298   2.657649
    32  H    7.124674   4.066416   4.222065   4.574116   2.662184
                   26         27         28         29         30
    26  H    0.000000
    27  H    1.774632   0.000000
    28  O    2.080043   2.080384   0.000000
    29  C    2.663757   2.617293   1.412326   0.000000
    30  H    3.639001   3.606967   2.025688   1.092290   0.000000
    31  H    3.075546   2.438454   2.087859   1.100968   1.783976
    32  H    2.493618   3.005134   2.089171   1.101596   1.784122
                   31         32
    31  H    0.000000
    32  H    1.784791   0.000000
 Stoichiometry    C9H18N2O3
 Framework group  C1[X(C9H18N2O3)]
 Deg. of freedom    90
 Full point group                 C1      NOp   1
 Largest Abelian subgroup         C1      NOp   1
 Largest concise Abelian subgroup C1      NOp   1
                         Standard orientation:                         
 ---------------------------------------------------------------------
 Center     Atomic      Atomic             Coordinates (Angstroms)
 Number     Number       Type             X           Y           Z
 ---------------------------------------------------------------------
      1          6           0        2.411000    2.313662   -0.463432
      2          6           0        0.929925    2.266762   -0.119319
      3          8           0        0.210130    3.242256   -0.314537
      4          7           0        0.423110    1.086241    0.393655
      5          6           0       -0.925045    1.148132    0.975482
      6          6           0       -1.697397   -0.165126    0.814506
      7          8           0       -1.776583   -0.944600    1.762025
      8          7           0       -2.267122   -0.425428   -0.406182
      9          6           0       -2.201173    0.442921   -1.573047
     10          6           0       -3.020251   -1.659127   -0.584222
     11          1           0        2.573599    3.201400   -1.073794
     12          1           0        2.756615    1.429086   -1.003900
     13          1           0        3.014225    2.404804    0.446838
     14          1           0       -0.856388    1.302331    2.058197
     15          1           0       -1.430360    2.008775    0.540965
     16          1           0       -1.588965    1.323127   -1.389850
     17          1           0       -1.768463   -0.100802   -2.422446
     18          1           0       -3.207426    0.771606   -1.863926
     19          1           0       -2.573141   -2.273220   -1.376242
     20          1           0       -3.008336   -2.209212    0.354958
     21          1           0       -4.056577   -1.437008   -0.867427
     22          6           0        1.278598   -0.027528    0.822868
     23          1           0        2.277348    0.329361    1.084187
     24          1           0        0.846060   -0.467734    1.724836
     25          6           0        1.411541   -1.121207   -0.239372
     26          1           0        1.773199   -0.692663   -1.190188
     27          1           0        0.429820   -1.577567   -0.440790
     28          8           0        2.323119   -2.075279    0.263269
     29          6           0        2.487622   -3.187884   -0.590964
     30          1           0        3.202715   -3.860894   -0.112636
     31          1           0        1.540238   -3.726995   -0.745734
     32          1           0        2.881666   -2.892721   -1.576419
 ---------------------------------------------------------------------
 Rotational constants (GHZ):      0.6168384      0.5725158      0.3631375
 Standard basis: 6-31G(d,p) (6D, 7F)
 There are   300 symmetry adapted basis functions of A   symmetry.
 Integral buffers will be    131072 words long.
 Raffenetti 2 integral format.
 Two-electron integral symmetry is turned on.
   300 basis functions,   518 primitive gaussians,   300 cartesian basis functions
    55 alpha electrons       55 beta electrons
       nuclear repulsion energy       985.2068433545 Hartrees.
 NAtoms=   32 NActive=   32 NUniq=   32 SFac= 1.00D+00 NAtFMM=   60 NAOKFM=F Big=F
 One-electron integrals computed using PRISM.
 NBasis=   300 RedAO= T  NBF=   300
 NBsUse=   300 1.00D-06 NBFU=   300
 Harris functional with IExCor=  402 diagonalized for initial guess.
 ExpMin= 1.61D-01 ExpMax= 5.48D+03 ExpMxC= 8.25D+02 IAcc=1 IRadAn=         1 AccDes= 0.00D+00
 HarFok:  IExCor=  402 AccDes= 0.00D+00 IRadAn=         1 IDoV= 1
 ScaDFX=  1.000000  1.000000  1.000000  1.000000
 FoFCou: FMM=F IPFlag=           0 FMFlag=      100000 FMFlg1=           0
         NFxFlg=           0 DoJE=T BraDBF=F KetDBF=T FulRan=T
         Omega=  0.000000  0.000000  1.000000  0.000000  0.000000 ICntrl=     500 IOpCl=  0
         NMat0=    1 NMatS0=    1 NMatT0=    0 NMatD0=    1 NMtDS0=    0 NMtDT0=    0
         I1Cent=           4 NGrid=           0.
 Petite list used in FoFCou.
 Initial guess orbital symmetries:
       Occupied  (A) (A) (A) (A) (A) (A) (A) (A) (A) (A) (A) (A)
                 (A) (A) (A) (A) (A) (A) (A) (A) (A) (A) (A) (A)
                 (A) (A) (A) (A) (A) (A) (A) (A) (A) (A) (A) (A)
                 (A) (A) (A) (A) (A) (A) (A) (A) (A) (A) (A) (A)
                 (A) (A) (A) (A) (A) (A) (A)
       Virtual   (A) (A) (A) (A) (A) (A) (A) (A) (A) (A) (A) (A)
                 (A) (A) (A) (A) (A) (A) (A) (A) (A) (A) (A) (A)
                 (A) (A) (A) (A) (A) (A) (A) (A) (A) (A) (A) (A)
                 (A) (A) (A) (A) (A) (A) (A) (A) (A) (A) (A) (A)
                 (A) (A) (A) (A) (A) (A) (A) (A) (A) (A) (A) (A)
                 (A) (A) (A) (A) (A) (A) (A) (A) (A) (A) (A) (A)
                 (A) (A) (A) (A) (A) (A) (A) (A) (A) (A) (A) (A)
                 (A) (A) (A) (A) (A) (A) (A) (A) (A) (A) (A) (A)
                 (A) (A) (A) (A) (A) (A) (A) (A) (A) (A) (A) (A)
                 (A) (A) (A) (A) (A) (A) (A) (A) (A) (A) (A) (A)
                 (A) (A) (A) (A) (A) (A) (A) (A) (A) (A) (A) (A)
                 (A) (A) (A) (A) (A) (A) (A) (A) (A) (A) (A) (A)
                 (A) (A) (A) (A) (A) (A) (A) (A) (A) (A) (A) (A)
                 (A) (A) (A) (A) (A) (A) (A) (A) (A) (A) (A) (A)
                 (A) (A) (A) (A) (A) (A) (A) (A) (A) (A) (A) (A)
                 (A) (A) (A) (A) (A) (A) (A) (A) (A) (A) (A) (A)
                 (A) (A) (A) (A) (A) (A) (A) (A) (A) (A) (A) (A)
                 (A) (A) (A) (A) (A) (A) (A) (A) (A) (A) (A) (A)
                 (A) (A) (A) (A) (A) (A) (A) (A) (A) (A) (A) (A)
                 (A) (A) (A) (A) (A) (A) (A) (A) (A) (A) (A) (A)
                 (A) (A) (A) (A) (A)
 The electronic state of the initial guess is 1-A.
 Requested convergence on RMS density matrix=1.00D-08 within 128 cycles.
 Requested convergence on MAX density matrix=1.00D-06.
 Requested convergence on             energy=1.00D-06.
 No special actions if energy rises.
 Keep R1 ints in memory in canonical form, NReq=1033483274.
 Integral accuracy reduced to 1.0D-05 until final iterations.
 Initial convergence to 1.0D-05 achieved.  Increase integral accuracy.
 SCF Done:  E(RB3LYP) =  -688.994981146     A.U. after   14 cycles
             Convg  =    0.7635D-08             -V/T =  2.0093

 **********************************************************************

            Population analysis using the SCF density.

 **********************************************************************

 Orbital symmetries:
       Occupied  (A) (A) (A) (A) (A) (A) (A) (A) (A) (A) (A) (A)
                 (A) (A) (A) (A) (A) (A) (A) (A) (A) (A) (A) (A)
                 (A) (A) (A) (A) (A) (A) (A) (A) (A) (A) (A) (A)
                 (A) (A) (A) (A) (A) (A) (A) (A) (A) (A) (A) (A)
                 (A) (A) (A) (A) (A) (A) (A)
       Virtual   (A) (A) (A) (A) (A) (A) (A) (A) (A) (A) (A) (A)
                 (A) (A) (A) (A) (A) (A) (A) (A) (A) (A) (A) (A)
                 (A) (A) (A) (A) (A) (A) (A) (A) (A) (A) (A) (A)
                 (A) (A) (A) (A) (A) (A) (A) (A) (A) (A) (A) (A)
                 (A) (A) (A) (A) (A) (A) (A) (A) (A) (A) (A) (A)
                 (A) (A) (A) (A) (A) (A) (A) (A) (A) (A) (A) (A)
                 (A) (A) (A) (A) (A) (A) (A) (A) (A) (A) (A) (A)
                 (A) (A) (A) (A) (A) (A) (A) (A) (A) (A) (A) (A)
                 (A) (A) (A) (A) (A) (A) (A) (A) (A) (A) (A) (A)
                 (A) (A) (A) (A) (A) (A) (A) (A) (A) (A) (A) (A)
                 (A) (A) (A) (A) (A) (A) (A) (A) (A) (A) (A) (A)
                 (A) (A) (A) (A) (A) (A) (A) (A) (A) (A) (A) (A)
                 (A) (A) (A) (A) (A) (A) (A) (A) (A) (A) (A) (A)
                 (A) (A) (A) (A) (A) (A) (A) (A) (A) (A) (A) (A)
                 (A) (A) (A) (A) (A) (A) (A) (A) (A) (A) (A) (A)
                 (A) (A) (A) (A) (A) (A) (A) (A) (A) (A) (A) (A)
                 (A) (A) (A) (A) (A) (A) (A) (A) (A) (A) (A) (A)
                 (A) (A) (A) (A) (A) (A) (A) (A) (A) (A) (A) (A)
                 (A) (A) (A) (A) (A) (A) (A) (A) (A) (A) (A) (A)
                 (A) (A) (A) (A) (A) (A) (A) (A) (A) (A) (A) (A)
                 (A) (A) (A) (A) (A)
 The electronic state is 1-A.
 Alpha  occ. eigenvalues --  -19.15578 -19.11489 -19.11220 -14.37123 -14.37069
 Alpha  occ. eigenvalues --  -10.29072 -10.28670 -10.23924 -10.23353 -10.22626
 Alpha  occ. eigenvalues --  -10.22582 -10.22323 -10.21637 -10.19482  -1.04035
 Alpha  occ. eigenvalues --   -1.03640  -1.03055  -0.93760  -0.93246  -0.77401
 Alpha  occ. eigenvalues --   -0.75758  -0.73011  -0.71658  -0.68670  -0.67260
 Alpha  occ. eigenvalues --   -0.62538  -0.55844  -0.54699  -0.51971  -0.50153
 Alpha  occ. eigenvalues --   -0.48860  -0.48375  -0.47690  -0.46968  -0.46543
 Alpha  occ. eigenvalues --   -0.45032  -0.44200  -0.42247  -0.41991  -0.40968
 Alpha  occ. eigenvalues --   -0.40764  -0.40511  -0.40039  -0.39087  -0.38193
 Alpha  occ. eigenvalues --   -0.37546  -0.36732  -0.36076  -0.35472  -0.32628
 Alpha  occ. eigenvalues --   -0.26278  -0.25858  -0.25071  -0.24503  -0.23889
 Alpha virt. eigenvalues --    0.01426   0.02078   0.06950   0.08742   0.08955
 Alpha virt. eigenvalues --    0.12232   0.12602   0.12996   0.13072   0.13962
 Alpha virt. eigenvalues --    0.14466   0.15058   0.15864   0.16071   0.16594
 Alpha virt. eigenvalues --    0.16679   0.17144   0.17550   0.18388   0.18788
 Alpha virt. eigenvalues --    0.19938   0.20658   0.21628   0.21752   0.22271
 Alpha virt. eigenvalues --    0.22971   0.25625   0.27716   0.28005   0.32779
 Alpha virt. eigenvalues --    0.35564   0.36643   0.41088   0.46676   0.47991
 Alpha virt. eigenvalues --    0.49600   0.49962   0.50494   0.51827   0.53176
 Alpha virt. eigenvalues --    0.53545   0.55432   0.55854   0.56930   0.58436
 Alpha virt. eigenvalues --    0.59008   0.60793   0.61578   0.64724   0.64932
 Alpha virt. eigenvalues --    0.65924   0.67375   0.68263   0.68900   0.71166
 Alpha virt. eigenvalues --    0.73344   0.73925   0.75017   0.75872   0.76619
 Alpha virt. eigenvalues --    0.77887   0.79095   0.80617   0.81014   0.82463
 Alpha virt. eigenvalues --    0.83345   0.83900   0.84484   0.85580   0.86139
 Alpha virt. eigenvalues --    0.87497   0.87660   0.88347   0.89053   0.90262
 Alpha virt. eigenvalues --    0.91185   0.92767   0.93524   0.93777   0.94625
 Alpha virt. eigenvalues --    0.95628   0.97305   0.98770   0.99229   1.00272
 Alpha virt. eigenvalues --    1.01588   1.04541   1.05624   1.08509   1.10856
 Alpha virt. eigenvalues --    1.12034   1.15768   1.17199   1.18082   1.21588
 Alpha virt. eigenvalues --    1.26472   1.27140   1.28336   1.29786   1.31499
 Alpha virt. eigenvalues --    1.35109   1.36838   1.37113   1.38719   1.39633
 Alpha virt. eigenvalues --    1.41965   1.43588   1.47170   1.49274   1.50911
 Alpha virt. eigenvalues --    1.57750   1.59308   1.59934   1.61243   1.64004
 Alpha virt. eigenvalues --    1.67906   1.70317   1.71850   1.72216   1.73457
 Alpha virt. eigenvalues --    1.75368   1.77058   1.78564   1.81846   1.82440
 Alpha virt. eigenvalues --    1.83432   1.84606   1.86820   1.87013   1.87473
 Alpha virt. eigenvalues --    1.88887   1.89529   1.91589   1.93373   1.94428
 Alpha virt. eigenvalues --    1.95838   1.97049   1.97330   1.97675   2.00324
 Alpha virt. eigenvalues --    2.00966   2.01445   2.02635   2.02731   2.02831
 Alpha virt. eigenvalues --    2.03146   2.03838   2.04053   2.05184   2.06603
 Alpha virt. eigenvalues --    2.08117   2.09134   2.09442   2.10018   2.10632
 Alpha virt. eigenvalues --    2.12181   2.13369   2.17011   2.17224   2.21331
 Alpha virt. eigenvalues --    2.23271   2.23929   2.27864   2.28612   2.28812
 Alpha virt. eigenvalues --    2.30339   2.32509   2.34344   2.38787   2.41133
 Alpha virt. eigenvalues --    2.41557   2.43762   2.46217   2.48529   2.50823
 Alpha virt. eigenvalues --    2.51691   2.52901   2.54432   2.55091   2.57251
 Alpha virt. eigenvalues --    2.58780   2.60346   2.62266   2.62721   2.63033
 Alpha virt. eigenvalues --    2.64435   2.66821   2.68474   2.68579   2.70112
 Alpha virt. eigenvalues --    2.71610   2.72475   2.73755   2.74664   2.79600
 Alpha virt. eigenvalues --    2.80313   2.82287   2.83061   2.84052   2.85805
 Alpha virt. eigenvalues --    2.87445   2.88546   2.89076   2.90040   2.91669
 Alpha virt. eigenvalues --    2.96209   2.97632   2.99269   3.04858   3.06908
 Alpha virt. eigenvalues --    3.10791   3.11340   3.15245   3.17110   3.17712
 Alpha virt. eigenvalues --    3.23356   3.24755   3.27035   3.34506   3.36249
 Alpha virt. eigenvalues --    3.38341   3.38387   3.42281   3.42724   3.43088
 Alpha virt. eigenvalues --    3.43381   3.43833   3.45605   3.48907   3.50907
 Alpha virt. eigenvalues --    3.55491   3.95187   4.01942   4.05927   4.10247
 Alpha virt. eigenvalues --    4.18732   4.31478   4.38993   4.40001   4.44941
 Alpha virt. eigenvalues --    4.50538   4.52702   4.63300   4.70752   4.72037
          Condensed to atoms (all electrons):
              1          2          3          4          5          6
     1  C    5.140368   0.356557  -0.078430  -0.118769   0.005603  -0.000074
     2  C    0.356557   4.371702   0.566476   0.261611  -0.024461   0.002138
     3  O   -0.078430   0.566476   8.097981  -0.099300  -0.006527   0.000495
     4  N   -0.118769   0.261611  -0.099300   7.141627   0.261479  -0.042474
     5  C    0.005603  -0.024461  -0.006527   0.261479   5.045813   0.326454
     6  C   -0.000074   0.002138   0.000495  -0.042474   0.326454   4.447916
     7  O    0.000000  -0.000147  -0.000002  -0.001514  -0.076138   0.543850
     8  N    0.000002   0.000294   0.000081   0.003445  -0.108914   0.275450
     9  C   -0.000063  -0.001083  -0.002334   0.003465   0.001021  -0.025612
    10  C    0.000000   0.000001   0.000000  -0.000204   0.005719  -0.029188
    11  H    0.368689  -0.022918   0.004642   0.004492  -0.000106   0.000002
    12  H    0.359137  -0.022513   0.002193   0.002534  -0.000040   0.000003
    13  H    0.366332  -0.021542   0.000647   0.001222  -0.000290  -0.000009
    14  H   -0.000082   0.000283   0.001313  -0.040178   0.367569  -0.033311
    15  H    0.001144  -0.007635   0.020637  -0.037830   0.362563  -0.021408
    16  H    0.000185   0.003929   0.009185  -0.007372   0.004606  -0.007518
    17  H    0.000004   0.000046   0.000002  -0.000026  -0.000149   0.001739
    18  H    0.000000  -0.000002  -0.000007   0.000195  -0.000373  -0.000746
    19  H    0.000000   0.000000   0.000000   0.000022  -0.000142   0.001830
    20  H    0.000000   0.000001   0.000000  -0.000015   0.001028  -0.003133
    21  H    0.000000   0.000000   0.000000  -0.000002  -0.000177   0.000579
    22  C    0.001295  -0.027834   0.002287   0.224744  -0.037104  -0.000314
    23  H    0.006060  -0.008526   0.000143  -0.032672   0.002820   0.000165
    24  H   -0.000263   0.002108  -0.000088  -0.030717  -0.005644  -0.002562
    25  C   -0.002058  -0.000719  -0.000023  -0.048210  -0.000240  -0.000687
    26  H   -0.001402   0.001472  -0.000050   0.003364   0.000325  -0.000147
    27  H    0.000095  -0.000013   0.000002   0.002319  -0.000992   0.004099
    28  O   -0.000001   0.000026   0.000000   0.002025  -0.000024  -0.000047
    29  C    0.000002  -0.000003   0.000000  -0.000119   0.000001  -0.000002
    30  H    0.000000   0.000000   0.000000   0.000001   0.000000   0.000000
    31  H    0.000000   0.000000   0.000000   0.000006  -0.000001  -0.000002
    32  H   -0.000003   0.000000   0.000000   0.000013   0.000000   0.000000
              7          8          9         10         11         12
     1  C    0.000000   0.000002  -0.000063   0.000000   0.368689   0.359137
     2  C   -0.000147   0.000294  -0.001083   0.000001  -0.022918  -0.022513
     3  O   -0.000002   0.000081  -0.002334   0.000000   0.004642   0.002193
     4  N   -0.001514   0.003445   0.003465  -0.000204   0.004492   0.002534
     5  C   -0.076138  -0.108914   0.001021   0.005719  -0.000106  -0.000040
     6  C    0.543850   0.275450  -0.025612  -0.029188   0.000002   0.000003
     7  O    8.118581  -0.095455   0.002762  -0.012737   0.000000   0.000000
     8  N   -0.095455   7.007527   0.291102   0.291374   0.000000  -0.000001
     9  C    0.002762   0.291102   4.827668  -0.051275   0.000001   0.000023
    10  C   -0.012737   0.291374  -0.051275   4.826441   0.000000   0.000000
    11  H    0.000000   0.000000   0.000001   0.000000   0.544625  -0.023418
    12  H    0.000000  -0.000001   0.000023   0.000000  -0.023418   0.583375
    13  H    0.000000   0.000000  -0.000001   0.000000  -0.021465  -0.028722
    14  H    0.004213   0.005321   0.000425  -0.000162  -0.000002  -0.000010
    15  H    0.002651   0.000650  -0.004329  -0.000186  -0.000025  -0.000038
    16  H    0.000021  -0.024852   0.377913   0.004134  -0.000002  -0.000071
    17  H   -0.000027  -0.045193   0.382405  -0.002761   0.000000  -0.000001
    18  H   -0.000047  -0.044738   0.383090  -0.002077   0.000000   0.000000
    19  H    0.000700  -0.045049  -0.002114   0.383527   0.000000   0.000000
    20  H    0.024616  -0.035973   0.004299   0.383237   0.000000   0.000000
    21  H    0.000651  -0.044528  -0.001281   0.387207   0.000000   0.000000
    22  C   -0.001660  -0.001780  -0.000426   0.000037   0.000308  -0.001476
    23  H    0.000086  -0.000018   0.000007   0.000000  -0.000021  -0.002408
    24  H    0.010631   0.000214  -0.000006  -0.000011  -0.000010   0.000211
    25  C   -0.000677   0.000026   0.000196  -0.000091   0.000035  -0.000240
    26  H    0.000016   0.000003   0.000069  -0.000002  -0.000045   0.004809
    27  H    0.000277   0.001523   0.000108   0.000247   0.000000  -0.000092
    28  O   -0.000003   0.000014   0.000001  -0.000001  -0.000001  -0.000064
    29  C   -0.000001   0.000004   0.000000  -0.000001   0.000000  -0.000008
    30  H    0.000000   0.000000   0.000000   0.000000   0.000000   0.000000
    31  H    0.000000  -0.000007   0.000000   0.000002   0.000000   0.000000
    32  H    0.000000   0.000000   0.000000   0.000000   0.000000   0.000007
             13         14         15         16         17         18
     1  C    0.366332  -0.000082   0.001144   0.000185   0.000004   0.000000
     2  C   -0.021542   0.000283  -0.007635   0.003929   0.000046  -0.000002
     3  O    0.000647   0.001313   0.020637   0.009185   0.000002  -0.000007
     4  N    0.001222  -0.040178  -0.037830  -0.007372  -0.000026   0.000195
     5  C   -0.000290   0.367569   0.362563   0.004606  -0.000149  -0.000373
     6  C   -0.000009  -0.033311  -0.021408  -0.007518   0.001739  -0.000746
     7  O    0.000000   0.004213   0.002651   0.000021  -0.000027  -0.000047
     8  N    0.000000   0.005321   0.000650  -0.024852  -0.045193  -0.044738
     9  C   -0.000001   0.000425  -0.004329   0.377913   0.382405   0.383090
    10  C    0.000000  -0.000162  -0.000186   0.004134  -0.002761  -0.002077
    11  H   -0.021465  -0.000002  -0.000025  -0.000002   0.000000   0.000000
    12  H   -0.028722  -0.000010  -0.000038  -0.000071  -0.000001   0.000000
    13  H    0.563814   0.000055  -0.000033   0.000004   0.000000   0.000000
    14  H    0.000055   0.589295  -0.028270   0.000035  -0.000019   0.000030
    15  H   -0.000033  -0.028270   0.547953   0.000788   0.000171   0.000204
    16  H    0.000004   0.000035   0.000788   0.540176  -0.026563  -0.027455
    17  H    0.000000  -0.000019   0.000171  -0.026563   0.618280  -0.047592
    18  H    0.000000   0.000030   0.000204  -0.027455  -0.047592   0.615671
    19  H    0.000000   0.000002  -0.000004  -0.000012   0.007009  -0.001764
    20  H    0.000000  -0.000028  -0.000036  -0.000210  -0.000054  -0.000064
    21  H    0.000000   0.000007  -0.000004   0.000008  -0.002026   0.006708
    22  C   -0.002296  -0.007111   0.005009   0.000105   0.000077  -0.000012
    23  H    0.002379   0.000589  -0.000191  -0.000001   0.000001   0.000000
    24  H    0.000149   0.004461   0.000366  -0.000035   0.000014   0.000000
    25  C    0.000052  -0.000158  -0.000174   0.000057   0.000067   0.000003
    26  H    0.000093   0.000000   0.000016  -0.000007   0.000056   0.000000
    27  H   -0.000007   0.000111  -0.000027  -0.000026  -0.000093   0.000025
    28  O   -0.000008   0.000006   0.000000   0.000000  -0.000001   0.000000
    29  C    0.000000   0.000000   0.000000   0.000000  -0.000001   0.000000
    30  H    0.000000   0.000000   0.000000   0.000000   0.000000   0.000000
    31  H    0.000000   0.000000   0.000000   0.000000   0.000002   0.000000
    32  H    0.000000   0.000000   0.000000   0.000000   0.000000   0.000000
             19         20         21         22         23         24
     1  C    0.000000   0.000000   0.000000   0.001295   0.006060  -0.000263
     2  C    0.000000   0.000001   0.000000  -0.027834  -0.008526   0.002108
     3  O    0.000000   0.000000   0.000000   0.002287   0.000143  -0.000088
     4  N    0.000022  -0.000015  -0.000002   0.224744  -0.032672  -0.030717
     5  C   -0.000142   0.001028  -0.000177  -0.037104   0.002820  -0.005644
     6  C    0.001830  -0.003133   0.000579  -0.000314   0.000165  -0.002562
     7  O    0.000700   0.024616   0.000651  -0.001660   0.000086   0.010631
     8  N   -0.045049  -0.035973  -0.044528  -0.001780  -0.000018   0.000214
     9  C   -0.002114   0.004299  -0.001281  -0.000426   0.000007  -0.000006
    10  C    0.383527   0.383237   0.387207   0.000037   0.000000  -0.000011
    11  H    0.000000   0.000000   0.000000   0.000308  -0.000021  -0.000010
    12  H    0.000000   0.000000   0.000000  -0.001476  -0.002408   0.000211
    13  H    0.000000   0.000000   0.000000  -0.002296   0.002379   0.000149
    14  H    0.000002  -0.000028   0.000007  -0.007111   0.000589   0.004461
    15  H   -0.000004  -0.000036  -0.000004   0.005009  -0.000191   0.000366
    16  H   -0.000012  -0.000210   0.000008   0.000105  -0.000001  -0.000035
    17  H    0.007009  -0.000054  -0.002026   0.000077   0.000001   0.000014
    18  H   -0.001764  -0.000064   0.006708  -0.000012   0.000000   0.000000
    19  H    0.615971  -0.025149  -0.044278   0.000006   0.000000   0.000005
    20  H   -0.025149   0.513922  -0.023976   0.000005   0.000000  -0.000016
    21  H   -0.044278  -0.023976   0.606619  -0.000001   0.000000  -0.000001
    22  C    0.000006   0.000005  -0.000001   4.941017   0.375934   0.373914
    23  H    0.000000   0.000000   0.000000   0.375934   0.601482  -0.027112
    24  H    0.000005  -0.000016  -0.000001   0.373914  -0.027112   0.558836
    25  C    0.000036  -0.000010   0.000002   0.364753  -0.046493  -0.040646
    26  H   -0.000006   0.000001   0.000000  -0.045093  -0.007463   0.006239
    27  H    0.000372   0.000025   0.000016  -0.036122   0.006541  -0.008209
    28  O   -0.000002   0.000000   0.000000  -0.040629   0.006389   0.004989
    29  C   -0.000003   0.000000   0.000000   0.004639  -0.000097  -0.000086
    30  H    0.000000   0.000000   0.000000  -0.000263   0.000008   0.000008
    31  H    0.000030   0.000000   0.000000   0.000062   0.000061  -0.000062
    32  H    0.000000   0.000000   0.000000  -0.000014  -0.000068   0.000039
             25         26         27         28         29         30
     1  C   -0.002058  -0.001402   0.000095  -0.000001   0.000002   0.000000
     2  C   -0.000719   0.001472  -0.000013   0.000026  -0.000003   0.000000
     3  O   -0.000023  -0.000050   0.000002   0.000000   0.000000   0.000000
     4  N   -0.048210   0.003364   0.002319   0.002025  -0.000119   0.000001
     5  C   -0.000240   0.000325  -0.000992  -0.000024   0.000001   0.000000
     6  C   -0.000687  -0.000147   0.004099  -0.000047  -0.000002   0.000000
     7  O   -0.000677   0.000016   0.000277  -0.000003  -0.000001   0.000000
     8  N    0.000026   0.000003   0.001523   0.000014   0.000004   0.000000
     9  C    0.000196   0.000069   0.000108   0.000001   0.000000   0.000000
    10  C   -0.000091  -0.000002   0.000247  -0.000001  -0.000001   0.000000
    11  H    0.000035  -0.000045   0.000000  -0.000001   0.000000   0.000000
    12  H   -0.000240   0.004809  -0.000092  -0.000064  -0.000008   0.000000
    13  H    0.000052   0.000093  -0.000007  -0.000008   0.000000   0.000000
    14  H   -0.000158   0.000000   0.000111   0.000006   0.000000   0.000000
    15  H   -0.000174   0.000016  -0.000027   0.000000   0.000000   0.000000
    16  H    0.000057  -0.000007  -0.000026   0.000000   0.000000   0.000000
    17  H    0.000067   0.000056  -0.000093  -0.000001  -0.000001   0.000000
    18  H    0.000003   0.000000   0.000025   0.000000   0.000000   0.000000
    19  H    0.000036  -0.000006   0.000372  -0.000002  -0.000003   0.000000
    20  H   -0.000010   0.000001   0.000025   0.000000   0.000000   0.000000
    21  H    0.000002   0.000000   0.000016   0.000000   0.000000   0.000000
    22  C    0.364753  -0.045093  -0.036122  -0.040629   0.004639  -0.000263
    23  H   -0.046493  -0.007463   0.006541   0.006389  -0.000097   0.000008
    24  H   -0.040646   0.006239  -0.008209   0.004989  -0.000086   0.000008
    25  C    4.775488   0.359485   0.363705   0.229867  -0.034179   0.005326
    26  H    0.359485   0.696511  -0.059765  -0.039822  -0.005751  -0.000121
    27  H    0.363705  -0.059765   0.662705  -0.036599  -0.006467  -0.000082
    28  O    0.229867  -0.039822  -0.036599   8.206117   0.259341  -0.032845
    29  C   -0.034179  -0.005751  -0.006467   0.259341   4.706553   0.395133
    30  H    0.005326  -0.000121  -0.000082  -0.032845   0.395133   0.583580
    31  H   -0.008650  -0.002651   0.013380  -0.037674   0.371220  -0.034355
    32  H   -0.009358   0.012920  -0.002737  -0.037595   0.369214  -0.035229
             31         32
     1  C    0.000000  -0.000003
     2  C    0.000000   0.000000
     3  O    0.000000   0.000000
     4  N    0.000006   0.000013
     5  C   -0.000001   0.000000
     6  C   -0.000002   0.000000
     7  O    0.000000   0.000000
     8  N   -0.000007   0.000000
     9  C    0.000000   0.000000
    10  C    0.000002   0.000000
    11  H    0.000000   0.000000
    12  H    0.000000   0.000007
    13  H    0.000000   0.000000
    14  H    0.000000   0.000000
    15  H    0.000000   0.000000
    16  H    0.000000   0.000000
    17  H    0.000002   0.000000
    18  H    0.000000   0.000000
    19  H    0.000030   0.000000
    20  H    0.000000   0.000000
    21  H    0.000000   0.000000
    22  C    0.000062  -0.000014
    23  H    0.000061  -0.000068
    24  H   -0.000062   0.000039
    25  C   -0.008650  -0.009358
    26  H   -0.002651   0.012920
    27  H    0.013380  -0.002737
    28  O   -0.037674  -0.037595
    29  C    0.371220   0.369214
    30  H   -0.034355  -0.035229
    31  H    0.656222  -0.052767
    32  H   -0.052767   0.665757
 Mulliken atomic charges:
              1
     1  C   -0.404327
     2  C    0.570751
     3  O   -0.519323
     4  N   -0.453162
     5  C   -0.123681
     6  C    0.562513
     7  O   -0.520647
     8  N   -0.430521
     9  C   -0.186032
    10  C   -0.183231
    11  H    0.145219
    12  H    0.126811
    13  H    0.139626
    14  H    0.135613
    15  H    0.158038
    16  H    0.152979
    17  H    0.114633
    18  H    0.118949
    19  H    0.109016
    20  H    0.161531
    21  H    0.114478
    22  C   -0.092060
    23  H    0.122403
    24  H    0.153284
    25  C    0.093515
    26  H    0.076947
    27  H    0.095681
    28  O   -0.483461
    29  C   -0.059388
    30  H    0.118840
    31  H    0.095185
    32  H    0.089822
 Sum of Mulliken atomic charges =   0.00000
 Mulliken charges with hydrogens summed into heavy atoms:
              1
     1  C    0.007329
     2  C    0.570751
     3  O   -0.519323
     4  N   -0.453162
     5  C    0.169969
     6  C    0.562513
     7  O   -0.520647
     8  N   -0.430521
     9  C    0.200529
    10  C    0.201793
    22  C    0.183627
    25  C    0.266143
    28  O   -0.483461
    29  C    0.244459
 Sum of Mulliken charges with hydrogens summed into heavy atoms =   0.00000
 Electronic spatial extent (au):  <R**2>=           3331.8180
 Charge=              0.0000 electrons
 Dipole moment (field-independent basis, Debye):
    X=              0.7607    Y=             -1.7124    Z=             -3.0934  Tot=              3.6167
 Quadrupole moment (field-independent basis, Debye-Ang):
   XX=            -77.9476   YY=            -92.8400   ZZ=            -86.9920
   XY=              0.8676   XZ=              4.3276   YZ=              8.0966
 Traceless Quadrupole moment (field-independent basis, Debye-Ang):
   XX=              7.9789   YY=             -6.9135   ZZ=             -1.0655
   XY=              0.8676   XZ=              4.3276   YZ=              8.0966
 Octapole moment (field-independent basis, Debye-Ang**2):
  XXX=             -9.1495  YYY=            -68.8514  ZZZ=             -5.9568  XYY=             14.3915
  XXY=              6.4858  XXZ=            -18.0423  XZZ=              7.7379  YZZ=              9.0210
  YYZ=             -2.4081  XYZ=             -1.2558
 Hexadecapole moment (field-independent basis, Debye-Ang**3):
 XXXX=          -1945.8316 YYYY=          -1872.4486 ZZZZ=           -514.5003 XXXY=             10.9601
 XXXZ=             17.8083 YYYX=            -36.7052 YYYZ=             26.8728 ZZZX=             18.1640
 ZZZY=              5.0682 XXYY=           -556.6902 XXZZ=           -423.2191 YYZZ=           -379.7884
 XXYZ=             19.9261 YYXZ=            -12.4848 ZZXY=            -12.6084
 N-N= 9.852068433545D+02 E-N=-3.575907007152D+03  KE= 6.826259095520D+02
 Calling FoFJK, ICntrl=      2127 FMM=F ISym2X=0 I1Cent= 0 IOpClX= 0 NMat=1 NMatS=1 NMatT=0.
 ***** Axes restored to original set *****
 -------------------------------------------------------------------
 Center     Atomic                   Forces (Hartrees/Bohr)
 Number     Number              X              Y              Z
 -------------------------------------------------------------------
      1        6           0.000001354    0.000001351    0.000005656
      2        6          -0.001713658   -0.000927873   -0.003878727
      3        8           0.000002898   -0.000010856    0.000002558
      4        7           0.001883889    0.001820058    0.004168204
      5        6           0.001206449   -0.002105427    0.003026391
      6        6          -0.001374660    0.001223966   -0.003319364
      7        8           0.000001248    0.000000796    0.000004563
      8        7           0.000004253   -0.000003448    0.000001497
      9        6          -0.000005941    0.000004609   -0.000000835
     10        6          -0.000003016    0.000002839    0.000000316
     11        1           0.000001515   -0.000001059   -0.000002673
     12        1          -0.000001058   -0.000002248   -0.000001919
     13        1           0.000002735   -0.000002609   -0.000004122
     14        1           0.000001349    0.000001537   -0.000002026
     15        1          -0.000000367    0.000001303    0.000000509
     16        1           0.000001828   -0.000000358   -0.000000492
     17        1           0.000000511    0.000000577    0.000001378
     18        1          -0.000000152    0.000000280    0.000001789
     19        1          -0.000001275    0.000000064    0.000001741
     20        1          -0.000000034    0.000001698    0.000001433
     21        1          -0.000000937    0.000002543    0.000000751
     22        6          -0.000000864    0.000000261   -0.000000638
     23        1           0.000001106    0.000001879    0.000000905
     24        1           0.000001797   -0.000001558    0.000000145
     25        6          -0.000000629   -0.000004214   -0.000003720
     26        1           0.000002405   -0.000000786    0.000000014
     27        1          -0.000002770    0.000000495    0.000002737
     28        8          -0.000000852   -0.000002275   -0.000005270
     29        6          -0.000002498    0.000004185    0.000004778
     30        1          -0.000000714   -0.000002427   -0.000000696
     31        1          -0.000003351   -0.000001854   -0.000001351
     32        1          -0.000000562   -0.000001449   -0.000003533
 -------------------------------------------------------------------
 Cartesian Forces:  Max     0.004168204 RMS     0.000869217

 GradGradGradGradGradGradGradGradGradGradGradGradGradGradGradGradGradGrad
 Berny optimization.
 Internal  Forces:  Max     0.003862208 RMS     0.000519795
 Search for a local minimum.
 Step number   1 out of a maximum of  155 on scan point     1 out of    37
 All quantities printed in internal units (Hartrees-Bohrs-Radians)
 Mixed Optimization -- En-DIIS/RFO-DIIS
 Second derivative matrix not updated -- first step.
 ITU=  0
     Eigenvalues ---    0.00364   0.00485   0.00778   0.00785   0.00947
     Eigenvalues ---    0.00951   0.01063   0.01168   0.01256   0.01529
     Eigenvalues ---    0.01532   0.01912   0.02062   0.02843   0.04128
     Eigenvalues ---    0.05391   0.05503   0.05884   0.06425   0.06888
     Eigenvalues ---    0.07260   0.07486   0.07487   0.07499   0.07650
     Eigenvalues ---    0.09411   0.09850   0.10037   0.10513   0.10808
     Eigenvalues ---    0.11064   0.12883   0.13587   0.16000   0.16000
     Eigenvalues ---    0.16000   0.16000   0.16000   0.16000   0.16000
     Eigenvalues ---    0.16000   0.16000   0.16000   0.16000   0.16000
     Eigenvalues ---    0.21924   0.21974   0.21999   0.22739   0.23829
     Eigenvalues ---    0.24996   0.24998   0.24999   0.24999   0.25000
     Eigenvalues ---    0.25000   0.25000   0.29238   0.29385   0.30247
     Eigenvalues ---    0.33259   0.33506   0.33551   0.33575   0.33925
     Eigenvalues ---    0.33968   0.33970   0.34011   0.34151   0.34152
     Eigenvalues ---    0.34480   0.34501   0.34546   0.34549   0.34868
     Eigenvalues ---    0.34985   0.34989   0.35078   0.35782   0.35917
     Eigenvalues ---    0.37427   0.37469   0.43637   0.43681   0.48496
     Eigenvalues ---    0.50591   0.91300   0.919561000.000001000.00000
     Eigenvalues --- 1000.000001000.000001000.000001000.000001000.00000
     Eigenvalues --- 1000.000001000.000001000.000001000.000001000.00000
     Eigenvalues --- 1000.000001000.000001000.000001000.000001000.00000
     Eigenvalues --- 1000.000001000.000001000.000001000.000001000.00000
     Eigenvalues --- 1000.000001000.000001000.000001000.000001000.00000
     Eigenvalues --- 1000.000001000.000001000.000001000.000001000.00000
     Eigenvalues --- 1000.000001000.000001000.000001000.000001000.00000
     Eigenvalues --- 1000.000001000.000001000.000001000.000001000.00000
     Eigenvalues --- 1000.000001000.000001000.000001000.000001000.00000
     Eigenvalues --- 1000.000001000.000001000.000001000.000001000.00000
     Eigenvalues --- 1000.000001000.000001000.000001000.000001000.00000
 RFO step:  Lambda= 0.00000000D+00 EMin= 3.63652715D-03
 Linear search not attempted -- first point.
 Iteration  1 RMS(Cart)=  0.00009676 RMS(Int)=  0.00000000
 Iteration  2 RMS(Cart)=  0.00000001 RMS(Int)=  0.00000000
 Iteration  1 RMS(Cart)=  0.00000000 RMS(Int)=  0.00000000
 Variable       Old X    -DE/DX   Delta X   Delta X   Delta X     New X
                                 (Linear)    (Quad)   (Total)
    R1        2.87474   0.00000   0.00000   0.00000   0.00000   2.87474
    R2        2.05890   0.00000   0.00000   0.00000   0.00000   2.05890
    R3        2.06493   0.00000   0.00000   0.00000   0.00000   2.06494
    R4        2.07076   0.00000   0.00000   0.00000   0.00000   2.07076
    R5        2.32044  -0.00001   0.00000  -0.00001  -0.00001   2.32043
    R6        2.61414   0.00001   0.00000   0.00002   0.00002   2.61415
    R7        2.77724   0.00000   0.00000   0.00001   0.00001   2.77724
    R8        2.77511   0.00000   0.00000   0.00000   0.00000   2.77511
    R9        2.89510  -0.00001   0.00000  -0.00002  -0.00002   2.89508
   R10        2.07075   0.00000   0.00000  -0.00001  -0.00001   2.07074
   R11        2.05699   0.00000   0.00000   0.00000   0.00000   2.05699
   R12        2.32340   0.00000   0.00000   0.00000   0.00000   2.32340
   R13        2.59273   0.00000   0.00000   0.00001   0.00001   2.59274
   R14        2.75145   0.00000   0.00000   0.00001   0.00001   2.75146
   R15        2.75207   0.00000   0.00000   0.00000   0.00000   2.75207
   R16        2.05548   0.00000   0.00000   0.00000   0.00000   2.05548
   R17        2.07384   0.00000   0.00000   0.00000   0.00000   2.07384
   R18        2.07456   0.00000   0.00000   0.00000   0.00000   2.07456
   R19        2.07381   0.00000   0.00000   0.00000   0.00000   2.07381
   R20        2.05693   0.00000   0.00000   0.00000   0.00000   2.05693
   R21        2.07312   0.00000   0.00000   0.00000   0.00000   2.07312
   R22        2.06418   0.00000   0.00000   0.00000   0.00000   2.06419
   R23        2.06527   0.00000   0.00000   0.00000   0.00000   2.06527
   R24        2.89206   0.00000   0.00000   0.00001   0.00001   2.89207
   R25        2.08599   0.00000   0.00000   0.00000   0.00000   2.08599
   R26        2.08094   0.00000   0.00000   0.00000   0.00000   2.08094
   R27        2.66838   0.00000   0.00000  -0.00001  -0.00001   2.66838
   R28        2.66891   0.00000   0.00000  -0.00001  -0.00001   2.66890
   R29        2.06413   0.00000   0.00000   0.00000   0.00000   2.06413
   R30        2.08053   0.00000   0.00000   0.00001   0.00001   2.08053
   R31        2.08171   0.00000   0.00000   0.00001   0.00001   2.08172
    A1        1.87249   0.00000   0.00000   0.00001   0.00001   1.87250
    A2        1.97671   0.00000   0.00000  -0.00003  -0.00003   1.97668
    A3        1.92902   0.00000   0.00000   0.00003   0.00003   1.92905
    A4        1.91273   0.00000   0.00000  -0.00001  -0.00001   1.91272
    A5        1.89171   0.00000   0.00000   0.00001   0.00001   1.89172
    A6        1.87977   0.00000   0.00000  -0.00001  -0.00001   1.87977
    A7        2.10628   0.00001   0.00000   0.00002   0.00002   2.10630
    A8        2.05656   0.00000   0.00000   0.00000   0.00000   2.05656
    A9        2.12015  -0.00001   0.00000  -0.00003  -0.00003   2.12013
   A10        2.03415  -0.00028   0.00000  -0.00003  -0.00003   2.03412
   A11        2.14383   0.00086   0.00000   0.00002   0.00002   2.14385
   A12        2.03826  -0.00016   0.00000   0.00002   0.00002   2.03828
   A13        1.96575   0.00010   0.00000   0.00001   0.00001   1.96575
   A14        1.91731   0.00015   0.00000   0.00000   0.00000   1.91731
   A15        1.87665  -0.00012   0.00000   0.00000   0.00000   1.87666
   A16        1.82971   0.00171   0.00000   0.00001   0.00001   1.82972
   A17        1.98426  -0.00173   0.00000  -0.00001  -0.00001   1.98425
   A18        1.88835  -0.00005   0.00000  -0.00001  -0.00001   1.88834
   A19        2.08857   0.00000   0.00000  -0.00001  -0.00001   2.08856
   A20        2.05495   0.00000   0.00000  -0.00001  -0.00001   2.05494
   A21        2.13961   0.00000   0.00000   0.00002   0.00002   2.13963
   A22        2.19083   0.00000   0.00000   0.00000   0.00000   2.19083
   A23        2.07628   0.00000   0.00000   0.00001   0.00001   2.07629
   A24        2.01603   0.00000   0.00000  -0.00002  -0.00002   2.01601
   A25        1.95318   0.00000   0.00000   0.00000   0.00000   1.95318
   A26        1.92055   0.00000   0.00000  -0.00001  -0.00001   1.92054
   A27        1.92771   0.00000   0.00000   0.00000   0.00000   1.92772
   A28        1.88532   0.00000   0.00000  -0.00002  -0.00002   1.88531
   A29        1.89467   0.00000   0.00000   0.00001   0.00001   1.89468
   A30        1.88039   0.00000   0.00000   0.00001   0.00001   1.88040
   A31        1.93005   0.00000   0.00000   0.00001   0.00001   1.93005
   A32        1.89333   0.00000   0.00000   0.00000   0.00000   1.89332
   A33        1.92683   0.00000   0.00000  -0.00001  -0.00001   1.92682
   A34        1.91290   0.00000   0.00000   0.00000   0.00000   1.91289
   A35        1.88794   0.00000   0.00000   0.00000   0.00000   1.88794
   A36        1.91283   0.00000   0.00000   0.00001   0.00001   1.91284
   A37        1.93347   0.00000   0.00000  -0.00001  -0.00001   1.93346
   A38        1.89246   0.00000   0.00000   0.00001   0.00001   1.89247
   A39        1.97114   0.00000   0.00000  -0.00002  -0.00002   1.97112
   A40        1.87133   0.00000   0.00000  -0.00001  -0.00001   1.87133
   A41        1.89664   0.00000   0.00000   0.00003   0.00003   1.89667
   A42        1.89586   0.00000   0.00000  -0.00001  -0.00001   1.89585
   A43        1.92717   0.00000   0.00000   0.00000   0.00000   1.92718
   A44        1.92375   0.00000   0.00000  -0.00003  -0.00003   1.92373
   A45        1.86697   0.00000   0.00000   0.00001   0.00001   1.86698
   A46        1.87070   0.00000   0.00000   0.00002   0.00002   1.87072
   A47        1.93630   0.00000   0.00000  -0.00001  -0.00001   1.93628
   A48        1.93974   0.00000   0.00000   0.00000   0.00000   1.93974
   A49        1.97378   0.00000   0.00000   0.00000   0.00000   1.97378
   A50        1.87211   0.00000   0.00000   0.00000   0.00000   1.87211
   A51        1.95040   0.00000   0.00000   0.00000   0.00000   1.95040
   A52        1.95159   0.00000   0.00000   0.00001   0.00001   1.95160
   A53        1.89990   0.00000   0.00000   0.00000   0.00000   1.89990
   A54        1.89933   0.00000   0.00000   0.00000   0.00000   1.89933
   A55        1.88941   0.00000   0.00000  -0.00001  -0.00001   1.88941
    D1       -0.22495   0.00000   0.00000   0.00004   0.00004  -0.22491
    D2        2.89590   0.00000   0.00000   0.00003   0.00003   2.89592
    D3       -2.33789   0.00000   0.00000   0.00006   0.00006  -2.33783
    D4        0.78296   0.00000   0.00000   0.00005   0.00005   0.78301
    D5        1.83429   0.00000   0.00000   0.00007   0.00007   1.83436
    D6       -1.32805   0.00000   0.00000   0.00006   0.00006  -1.32799
    D7        2.92555   0.00058   0.00000   0.00002   0.00002   2.92558
    D8        0.18183  -0.00058   0.00000   0.00000   0.00000   0.18183
    D9       -0.23696   0.00058   0.00000   0.00001   0.00001  -0.23695
   D10       -2.98068  -0.00058   0.00000  -0.00002  -0.00002  -2.98070
   D11        2.59478  -0.00386   0.00000   0.00000   0.00000   2.59478
   D12       -1.65595  -0.00157   0.00000   0.00001   0.00001  -1.65594
   D13        0.39527  -0.00162   0.00000   0.00001   0.00001   0.39527
   D14       -0.92012  -0.00254   0.00000   0.00002   0.00002  -0.92009
   D15        1.11234  -0.00025   0.00000   0.00004   0.00004   1.11238
   D16       -3.11963  -0.00030   0.00000   0.00003   0.00003  -3.11960
   D17        0.41962   0.00056   0.00000   0.00004   0.00004   0.41966
   D18        2.46863   0.00056   0.00000   0.00004   0.00004   2.46867
   D19       -1.71257   0.00056   0.00000   0.00002   0.00002  -1.71254
   D20       -2.32323  -0.00056   0.00000   0.00003   0.00003  -2.32321
   D21       -0.27422  -0.00056   0.00000   0.00002   0.00002  -0.27420
   D22        1.82777  -0.00056   0.00000   0.00001   0.00001   1.82777
   D23        1.75518   0.00091   0.00000   0.00008   0.00008   1.75526
   D24       -1.37567   0.00091   0.00000   0.00000   0.00000  -1.37567
   D25       -0.32890  -0.00040   0.00000   0.00007   0.00007  -0.32883
   D26        2.82343  -0.00040   0.00000  -0.00001  -0.00001   2.82342
   D27       -2.38779  -0.00051   0.00000   0.00008   0.00008  -2.38771
   D28        0.76454  -0.00051   0.00000   0.00000   0.00000   0.76454
   D29        0.00107   0.00000   0.00000   0.00004   0.00004   0.00111
   D30       -3.12963   0.00000   0.00000   0.00012   0.00012  -3.12950
   D31       -3.12944   0.00000   0.00000  -0.00004  -0.00004  -3.12949
   D32        0.02304   0.00000   0.00000   0.00004   0.00004   0.02308
   D33        0.05573   0.00000   0.00000   0.00006   0.00006   0.05579
   D34        2.15200   0.00000   0.00000   0.00004   0.00004   2.15204
   D35       -2.05731   0.00000   0.00000   0.00004   0.00004  -2.05727
   D36       -3.09643   0.00000   0.00000  -0.00002  -0.00002  -3.09645
   D37       -1.00015   0.00000   0.00000  -0.00004  -0.00004  -1.00019
   D38        1.07373   0.00000   0.00000  -0.00004  -0.00004   1.07369
   D39       -2.09343   0.00000   0.00000   0.00001   0.00001  -2.09341
   D40        0.00482   0.00000   0.00000   0.00001   0.00001   0.00483
   D41        2.10104   0.00000   0.00000   0.00001   0.00001   2.10106
   D42        1.05799   0.00000   0.00000   0.00009   0.00009   1.05808
   D43       -3.12695   0.00000   0.00000   0.00009   0.00009  -3.12687
   D44       -1.03073   0.00000   0.00000   0.00009   0.00009  -1.03064
   D45        0.96519   0.00000   0.00000   0.00010   0.00010   0.96530
   D46       -1.09839   0.00000   0.00000   0.00008   0.00008  -1.09830
   D47        3.07389   0.00000   0.00000   0.00009   0.00009   3.07399
   D48       -1.18752   0.00000   0.00000   0.00010   0.00010  -1.18742
   D49        3.03209   0.00000   0.00000   0.00009   0.00009   3.03217
   D50        0.92118   0.00000   0.00000   0.00009   0.00009   0.92127
   D51        3.06524   0.00000   0.00000   0.00010   0.00010   3.06534
   D52        1.00166   0.00000   0.00000   0.00008   0.00008   1.00174
   D53       -1.10925   0.00000   0.00000   0.00009   0.00009  -1.10916
   D54        3.08524   0.00000   0.00000  -0.00001  -0.00001   3.08523
   D55       -1.09506   0.00000   0.00000  -0.00001  -0.00001  -1.09507
   D56        0.98452   0.00000   0.00000   0.00002   0.00002   0.98453
   D57       -3.13790   0.00000   0.00000   0.00003   0.00003  -3.13786
   D58       -1.05688   0.00000   0.00000   0.00004   0.00004  -1.05684
   D59        1.06428   0.00000   0.00000   0.00004   0.00004   1.06432
         Item               Value     Threshold  Converged?
 Maximum Force            0.000010     0.000450     YES
 RMS     Force            0.000002     0.000300     YES
 Maximum Displacement     0.000350     0.001800     YES
 RMS     Displacement     0.000097     0.001200     YES
 Predicted change in Energy=-1.940847D-09
 Optimization completed.
    -- Stationary point found.
                           ----------------------------
                           !   Optimized Parameters   !
                           ! (Angstroms and Degrees)  !
 --------------------------                            --------------------------
 ! Name  Definition              Value          Derivative Info.                !
 --------------------------------------------------------------------------------
 ! R1    R(1,2)                  1.5212         -DE/DX =    0.0                 !
 ! R2    R(1,11)                 1.0895         -DE/DX =    0.0                 !
 ! R3    R(1,12)                 1.0927         -DE/DX =    0.0                 !
 ! R4    R(1,13)                 1.0958         -DE/DX =    0.0                 !
 ! R5    R(2,3)                  1.2279         -DE/DX =    0.0                 !
 ! R6    R(2,4)                  1.3833         -DE/DX =    0.0                 !
 ! R7    R(4,5)                  1.4697         -DE/DX =    0.0                 !
 ! R8    R(4,22)                 1.4685         -DE/DX =    0.0                 !
 ! R9    R(5,6)                  1.532          -DE/DX =    0.0                 !
 ! R10   R(5,14)                 1.0958         -DE/DX =    0.0                 !
 ! R11   R(5,15)                 1.0885         -DE/DX =    0.0                 !
 ! R12   R(6,7)                  1.2295         -DE/DX =    0.0                 !
 ! R13   R(6,8)                  1.372          -DE/DX =    0.0                 !
 ! R14   R(8,9)                  1.456          -DE/DX =    0.0                 !
 ! R15   R(8,10)                 1.4563         -DE/DX =    0.0                 !
 ! R16   R(9,16)                 1.0877         -DE/DX =    0.0                 !
 ! R17   R(9,17)                 1.0974         -DE/DX =    0.0                 !
 ! R18   R(9,18)                 1.0978         -DE/DX =    0.0                 !
 ! R19   R(10,19)                1.0974         -DE/DX =    0.0                 !
 ! R20   R(10,20)                1.0885         -DE/DX =    0.0                 !
 ! R21   R(10,21)                1.097          -DE/DX =    0.0                 !
 ! R22   R(22,23)                1.0923         -DE/DX =    0.0                 !
 ! R23   R(22,24)                1.0929         -DE/DX =    0.0                 !
 ! R24   R(22,25)                1.5304         -DE/DX =    0.0                 !
 ! R25   R(25,26)                1.1039         -DE/DX =    0.0                 !
 ! R26   R(25,27)                1.1012         -DE/DX =    0.0                 !
 ! R27   R(25,28)                1.412          -DE/DX =    0.0                 !
 ! R28   R(28,29)                1.4123         -DE/DX =    0.0                 !
 ! R29   R(29,30)                1.0923         -DE/DX =    0.0                 !
 ! R30   R(29,31)                1.101          -DE/DX =    0.0                 !
 ! R31   R(29,32)                1.1016         -DE/DX =    0.0                 !
 ! A1    A(2,1,11)             107.2859         -DE/DX =    0.0                 !
 ! A2    A(2,1,12)             113.2574         -DE/DX =    0.0                 !
 ! A3    A(2,1,13)             110.5246         -DE/DX =    0.0                 !
 ! A4    A(11,1,12)            109.5911         -DE/DX =    0.0                 !
 ! A5    A(11,1,13)            108.3872         -DE/DX =    0.0                 !
 ! A6    A(12,1,13)            107.7031         -DE/DX =    0.0                 !
 ! A7    A(1,2,3)              120.6807         -DE/DX =    0.0                 !
 ! A8    A(1,2,4)              117.8324         -DE/DX =    0.0                 !
 ! A9    A(3,2,4)              121.4759         -DE/DX =    0.0                 !
 ! A10   A(2,4,5)              116.5482         -DE/DX =   -0.0003              !
 ! A11   A(2,4,22)             122.8323         -DE/DX =    0.0009              !
 ! A12   A(5,4,22)             116.7834         -DE/DX =   -0.0002              !
 ! A13   A(4,5,6)              112.6291         -DE/DX =    0.0001              !
 ! A14   A(4,5,14)             109.8537         -DE/DX =    0.0002              !
 ! A15   A(4,5,15)             107.5243         -DE/DX =   -0.0001              !
 ! A16   A(6,5,14)             104.8348         -DE/DX =    0.0017              !
[...]
 ! D50   D(23,22,25,28)         46.1742         -DE/DX =    0.0                 !
 ! D51   D(24,22,25,26)        170.7933         -DE/DX =    0.0                 !
 ! D52   D(24,22,25,27)         51.7752         -DE/DX =    0.0                 !
 ! D53   D(24,22,25,28)        -68.6156         -DE/DX =    0.0                 !
 ! D54   D(22,25,28,29)        176.197          -DE/DX =    0.0                 !
 ! D55   D(26,25,28,29)        -63.322          -DE/DX =    0.0                 !
 ! D56   D(27,25,28,29)         56.2267         -DE/DX =    0.0                 !
 ! D57   D(25,28,29,30)       -179.8853         -DE/DX =    0.0                 !
 ! D58   D(25,28,29,31)        -60.5951         -DE/DX =    0.0                 !
 ! D59   D(25,28,29,32)         60.8871         -DE/DX =    0.0                 !
 --------------------------------------------------------------------------------
 Iteration  1 RMS(Cart)=  0.04196110 RMS(Int)=  0.01111161
 Iteration  2 RMS(Cart)=  0.00115401 RMS(Int)=  0.01109938
 Iteration  3 RMS(Cart)=  0.00000552 RMS(Int)=  0.01109938
 Iteration  4 RMS(Cart)=  0.00000024 RMS(Int)=  0.01109938
 Iteration  1 RMS(Cart)=  0.02633195 RMS(Int)=  0.00682274
 Iteration  2 RMS(Cart)=  0.01737176 RMS(Int)=  0.00753667
 Iteration  3 RMS(Cart)=  0.01178396 RMS(Int)=  0.00860360
 Iteration  4 RMS(Cart)=  0.00811596 RMS(Int)=  0.00948162
 Iteration  5 RMS(Cart)=  0.00563378 RMS(Int)=  0.01013061
 Iteration  6 RMS(Cart)=  0.00392617 RMS(Int)=  0.01059558
 Iteration  7 RMS(Cart)=  0.00274146 RMS(Int)=  0.01092488
 Iteration  8 RMS(Cart)=  0.00191605 RMS(Int)=  0.01115690
 Iteration  9 RMS(Cart)=  0.00133978 RMS(Int)=  0.01131994
 Iteration 10 RMS(Cart)=  0.00093704 RMS(Int)=  0.01143433
 Iteration 11 RMS(Cart)=  0.00065543 RMS(Int)=  0.01151450
 Iteration 12 RMS(Cart)=  0.00045848 RMS(Int)=  0.01157067
 Iteration 13 RMS(Cart)=  0.00032072 RMS(Int)=  0.01160999
 Iteration 14 RMS(Cart)=  0.00022435 RMS(Int)=  0.01163752
 Iteration 15 RMS(Cart)=  0.00015694 RMS(Int)=  0.01165678
 Iteration 16 RMS(Cart)=  0.00010979 RMS(Int)=  0.01167026
 Iteration 17 RMS(Cart)=  0.00007680 RMS(Int)=  0.01167970
 Iteration 18 RMS(Cart)=  0.00005373 RMS(Int)=  0.01168630
 Iteration 19 RMS(Cart)=  0.00003758 RMS(Int)=  0.01169091
 Iteration 20 RMS(Cart)=  0.00002629 RMS(Int)=  0.01169414
 Iteration 21 RMS(Cart)=  0.00001839 RMS(Int)=  0.01169640
 Iteration 22 RMS(Cart)=  0.00001287 RMS(Int)=  0.01169798
 Iteration 23 RMS(Cart)=  0.00000900 RMS(Int)=  0.01169909
 Iteration 24 RMS(Cart)=  0.00000630 RMS(Int)=  0.01169986
 Iteration 25 RMS(Cart)=  0.00000440 RMS(Int)=  0.01170040
 Iteration 26 RMS(Cart)=  0.00000308 RMS(Int)=  0.01170078
 Iteration 27 RMS(Cart)=  0.00000216 RMS(Int)=  0.01170105
 Iteration 28 RMS(Cart)=  0.00000151 RMS(Int)=  0.01170123
 Iteration 29 RMS(Cart)=  0.00000105 RMS(Int)=  0.01170136
 Iteration 30 RMS(Cart)=  0.00000074 RMS(Int)=  0.01170145
 GradGradGradGradGradGradGradGradGradGradGradGradGradGradGradGradGradGrad

                          Input orientation:                          
 ---------------------------------------------------------------------
 Center     Atomic      Atomic             Coordinates (Angstroms)
 Number     Number       Type             X           Y           Z
 ---------------------------------------------------------------------
      1          6           0        2.406652    2.298277   -0.321680
      2          6           0        0.941815    2.365087    0.082850
      3          8           0        0.362293    3.441831    0.138602
      4          7           0        0.283012    1.163207    0.348813
      5          6           0       -0.992370    1.291117    1.064723
      6          6           0       -2.109986    0.272256    0.803283
      7          8           0       -2.980105    0.163416    1.659205
      8          7           0       -2.001985   -0.651964   -0.223366
      9          6           0       -1.563618   -0.240106   -1.560567
     10          6           0       -3.026220   -1.695840   -0.238109
     11          1           0        2.645559    3.234982   -0.824895
     12          1           0        2.643356    1.457041   -0.976524
     13          1           0        3.042450    2.219093    0.567596
     14          1           0       -0.905824    1.292454    2.157664
     15          1           0       -1.332652    2.289522    0.777190
     16          1           0       -0.838613    0.567949   -1.493242
     17          1           0       -1.094627   -1.086131   -2.074949
     18          1           0       -2.417590    0.096446   -2.166570
     19          1           0       -2.665836   -2.528781   -0.849839
     20          1           0       -3.211433   -2.035779    0.780417
     21          1           0       -3.976573   -1.334967   -0.655854
     22          6           0        1.083899   -0.032919    0.676780
     23          1           0        2.077628    0.250858    1.033257
     24          1           0        0.596719   -0.554688    1.504597
     25          6           0        1.268146   -1.019282   -0.478664
     26          1           0        1.605272   -0.495229   -1.389173
     27          1           0        0.315300   -1.513921   -0.712678
     28          8           0        2.233947   -1.959885   -0.051499
     29          6           0        2.450021   -2.993802   -0.989467
     30          1           0        3.204325   -3.661892   -0.567824
     31          1           0        1.531493   -3.569793   -1.181742
     32          1           0        2.818850   -2.603093   -1.950978
 ---------------------------------------------------------------------
                    Distance matrix (angstroms):
                    1          2          3          4          5
     1  C    0.000000
     2  C    1.521137   0.000000
     3  O    2.387254   1.224063   0.000000
     4  N    2.499559   1.396164   2.289673   0.000000
     5  C    3.806551   2.420445   2.705250   1.468157   0.000000
     6  C    5.076448   3.769941   4.074330   2.593603   1.534762
     7  O    6.123618   4.765890   4.922587   3.655768   2.361401
     8  N    5.305626   4.226384   4.741306   2.973793   2.540484
     9  C    4.872502   3.970521   4.489205   3.004174   3.092429
    10  C    6.743594   5.686777   6.166002   4.412441   3.841331
    11  H    1.089825   2.117419   2.486849   3.354322   4.536936
    12  H    1.092029   2.200469   3.222755   2.722881   4.172855
    13  H    1.096047   2.160778   2.976972   2.962644   4.169897
    14  H    4.258089   2.978114   3.210070   2.168404   1.096364
    15  H    3.897434   2.379289   2.146730   2.015555   1.093288
    16  H    3.859837   2.980553   3.516289   2.237307   2.662667
    17  H    5.175629   4.551275   5.246415   3.582183   3.939455
    18  H    5.614713   4.635971   4.922719   3.841664   3.728236
    19  H    7.022078   6.151016   6.767184   4.874756   4.588862
    20  H    7.180636   6.091279   6.571731   4.757198   4.009153
    21  H    7.352394   6.198921   6.501901   5.039275   4.331532
    22  C    2.860257   2.474545   3.589461   1.476380   2.492882
    23  H    2.477102   2.581339   3.731633   2.126380   3.241607
    24  H    3.840645   3.265814   4.230018   2.094137   2.475013
    25  C    3.510988   3.446120   4.593813   2.533469   3.581888
    26  H    3.096034   3.284575   4.402219   2.742148   3.995045
    27  H    4.365718   4.009001   5.028555   2.880073   3.568949
    28  O    4.270219   4.515865   5.719944   3.704065   4.714243
    29  C    5.334222   5.669413   6.859192   4.875207   5.867732
    30  H    6.018345   6.470456   7.683688   5.714532   6.694009
    31  H    5.994986   6.096697   7.230021   5.128605   5.919876
    32  H    5.181501   5.687050   6.851432   5.089649   6.227738
                    6          7          8          9         10
     6  C    0.000000
     7  O    1.225380   0.000000
     8  N    1.385589   2.272804   0.000000
     9  C    2.479682   3.540650   1.466254   0.000000
    10  C    2.407775   2.656832   1.462516   2.450972   0.000000
    11  H    5.834717   6.874109   6.088501   5.507687   7.538329
    12  H    5.212072   6.343804   5.156970   4.573843   6.529166
    13  H    5.513013   6.456670   5.857893   5.638492   7.266678
    14  H    2.079702   2.413677   3.263685   4.075129   4.377866
    15  H    2.162011   2.830615   3.178279   3.452169   4.447708
    16  H    2.641562   3.832435   2.110499   1.087711   3.389059
    17  H    3.340717   4.365811   2.107169   1.095582   2.734370
    18  H    2.990912   3.867488   2.123413   1.099898   2.702162
    19  H    3.299635   3.693506   2.087010   2.637812   1.094478
    20  H    2.557486   2.379545   2.094109   3.379341   1.089614
    21  H    2.862935   2.932166   2.133668   2.799925   1.099049
    22  C    3.210925   4.185671   3.273554   3.472462   4.527185
    23  H    4.193979   5.097070   4.363190   4.497515   5.608500
    24  H    2.915807   3.651472   3.122272   3.763143   4.179107
    25  C    3.837087   4.900704   3.300584   3.129939   4.353985
    26  H    4.381671   5.545458   3.794203   3.183760   4.921091
    27  H    3.372029   4.393061   2.520358   2.423191   3.379951
    28  O    4.958110   5.883983   4.436588   4.433557   5.270095
    29  C    5.888527   6.816873   5.088366   4.900846   5.677892
    30  H    6.752730   7.605249   6.023619   5.952095   6.541695
    31  H    5.653497   6.508636   4.681632   4.561802   5.017459
    32  H    6.336167   7.369863   5.480146   4.994212   6.158074
                   11         12         13         14         15
    11  H    0.000000
    12  H    1.784397   0.000000
    13  H    1.768781   1.767571   0.000000
    14  H    5.028060   4.737816   4.356126   0.000000
    15  H    4.391667   4.424611   4.380686   1.755572   0.000000
    16  H    4.438380   3.630647   4.694250   3.722706   2.891842
    17  H    5.850098   4.652610   5.918020   4.858841   4.425652
    18  H    6.106225   5.374068   6.464776   4.734435   3.827845
    19  H    7.837889   6.640056   7.558833   5.171514   5.257437
    20  H    8.041287   7.040255   7.567052   4.276655   4.715724
    21  H    8.047710   7.191773   7.962088   4.924300   4.709655
    22  C    3.920840   2.717591   2.986536   2.812228   3.353138
    23  H    3.560937   2.411254   2.240908   3.354132   3.981423
    24  H    4.897538   3.793645   3.814896   2.469021   3.512993
    25  C    4.485076   2.875977   3.837953   4.125591   4.391982
    26  H    3.913449   2.249279   3.641699   4.699092   4.591227
    27  H    5.291010   3.783659   4.797066   4.195921   4.404729
    28  O    5.268227   3.563520   4.301257   5.031528   5.609351
    29  C    6.234026   4.455059   5.472632   6.287935   6.733737
    30  H    6.924246   5.165772   5.991775   6.990505   7.603457
    31  H    6.904597   5.152419   6.233328   6.382288   6.809722
    32  H    5.948212   4.179121   5.444878   6.777125   6.972486
                   16         17         18         19         20
    16  H    0.000000
    17  H    1.771978   0.000000
    18  H    1.780127   1.776827   0.000000
    19  H    3.652731   2.459844   2.947409   0.000000
    20  H    4.192756   3.679106   3.723077   1.788425   0.000000
    21  H    3.764186   3.222012   2.600314   1.783494   1.771850
    22  C    2.960759   3.664321   4.512405   4.756092   4.740471
    23  H    3.871461   4.638069   5.519939   5.811445   5.767738
    24  H    3.508209   3.994526   4.794528   4.481593   4.149709
    25  C    2.826147   2.852243   4.204584   4.229962   4.762896
    26  H    2.667162   2.847615   4.139788   4.761153   5.502823
    27  H    2.504991   2.006659   3.489380   3.152130   3.865167
    28  O    4.231926   3.992142   5.508069   4.996885   5.509084
    29  C    4.873908   4.169173   5.884628   5.138845   6.008524
    30  H    5.923960   5.233255   6.948887   5.985171   6.754550
    31  H    4.778634   3.723292   5.477815   4.337215   5.357109
    32  H    4.862311   4.199029   5.895278   5.594624   6.644297
                   21         22         23         24         25
    21  H    0.000000
    22  C    5.392552   0.000000
    23  H    6.482383   1.093207   0.000000
    24  H    5.117752   1.093101   1.750474   0.000000
    25  C    5.257198   1.530330   2.134109   2.144759   0.000000
    26  H    5.692092   2.180303   2.578359   3.065065   1.103319
    27  H    4.295978   2.171337   3.044427   2.432208   1.098793
    28  O    6.271070   2.359280   2.467492   2.660175   1.414205
    29  C    6.645610   3.661898   3.841603   3.950236   2.357218
    30  H    7.549014   4.383457   4.375216   4.555135   3.277213
    31  H    5.967394   4.020438   4.449928   4.145007   2.658717
    32  H    7.033012   4.064599   4.195248   4.590733   2.660986
                   26         27         28         29         30
    26  H    0.000000
    27  H    1.777473   0.000000
    28  O    2.080823   2.077799   0.000000
    29  C    2.667627   2.612220   1.412606   0.000000
    30  H    3.641338   3.602947   2.026093   1.092292   0.000000
    31  H    3.082437   2.434287   2.088706   1.101103   1.784305
    32  H    2.496295   2.997907   2.088983   1.101450   1.784029
                   31         32
    31  H    0.000000
    32  H    1.784243   0.000000
 Stoichiometry    C9H18N2O3
 Framework group  C1[X(C9H18N2O3)]
 Deg. of freedom    90
 Full point group                 C1      NOp   1
 Largest Abelian subgroup         C1      NOp   1
 Largest concise Abelian subgroup C1      NOp   1
                         Standard orientation:                         
 ---------------------------------------------------------------------
 Center     Atomic      Atomic             Coordinates (Angstroms)
 Number     Number       Type             X           Y           Z
 ---------------------------------------------------------------------
      1          6           0        2.460932    2.221452   -0.378647
      2          6           0        0.949266    2.291561   -0.224349
      3          8           0        0.347928    3.328407   -0.472687
      4          7           0        0.279383    1.132102    0.170854
      5          6           0       -1.096230    1.331657    0.643455
      6          6           0       -2.138121    0.226792    0.421577
      7          8           0       -3.131637    0.241673    1.138697
      8          7           0       -1.849864   -0.871550   -0.372406
      9          6           0       -1.211301   -0.703991   -1.681627
     10          6           0       -2.838549   -1.948649   -0.336208
     11          1           0        2.759357    3.054239   -1.015143
     12          1           0        2.815207    1.282616   -0.809464
     13          1           0        2.947801    2.347300    0.595233
     14          1           0       -1.185535    1.548179    1.714509
     15          1           0       -1.405089    2.237493    0.114922
     16          1           0       -0.521868    0.137169   -1.665896
     17          1           0       -0.650129   -1.608779   -1.939980
     18          1           0       -1.963669   -0.533915   -2.465714
     19          1           0       -2.369256   -2.864840   -0.708014
     20          1           0       -3.177689   -2.094531    0.688955
     21          1           0       -3.716594   -1.723248   -0.957612
     22          6           0        1.040135    0.063399    0.848223
     23          1           0        1.958533    0.460061    1.289025
     24          1           0        0.436904   -0.312592    1.678652
     25          6           0        1.425411   -1.116868   -0.046452
     26          1           0        1.893719   -0.762113   -0.980341
     27          1           0        0.531795   -1.694483   -0.320600
     28          8           0        2.328214   -1.907772    0.701474
     29          6           0        2.711044   -3.091083    0.031643
     30          1           0        3.400813   -3.626608    0.687794
     31          1           0        1.846174   -3.738644   -0.180705
     32          1           0        3.221328   -2.875247   -0.920312
 ---------------------------------------------------------------------
 Rotational constants (GHZ):      0.6430258      0.5633550      0.3474389
 Standard basis: 6-31G(d,p) (6D, 7F)
 There are   300 symmetry adapted basis functions of A   symmetry.
 Integral buffers will be    131072 words long.
 Raffenetti 2 integral format.
 Two-electron integral symmetry is turned on.
   300 basis functions,   518 primitive gaussians,   300 cartesian basis functions
    55 alpha electrons       55 beta electrons
       nuclear repulsion energy       986.7388945550 Hartrees.
 NAtoms=   32 NActive=   32 NUniq=   32 SFac= 1.00D+00 NAtFMM=   60 NAOKFM=F Big=F
 One-electron integrals computed using PRISM.
 NBasis=   300 RedAO= T  NBF=   300
 NBsUse=   300 1.00D-06 NBFU=   300
 Initial guess read from the read-write file.
 B after Tr=     0.000000    0.000000    0.000000
         Rot=    1.000000    0.000000    0.000000    0.000000 Ang=   0.00 deg.
 Initial guess orbital symmetries:
       Occupied  (A) (A) (A) (A) (A) (A) (A) (A) (A) (A) (A) (A)
                 (A) (A) (A) (A) (A) (A) (A) (A) (A) (A) (A) (A)
                 (A) (A) (A) (A) (A) (A) (A) (A) (A) (A) (A) (A)
                 (A) (A) (A) (A) (A) (A) (A) (A) (A) (A) (A) (A)
                 (A) (A) (A) (A) (A) (A) (A)
       Virtual   (A) (A) (A) (A) (A) (A) (A) (A) (A) (A) (A) (A)
                 (A) (A) (A) (A) (A) (A) (A) (A) (A) (A) (A) (A)
                 (A) (A) (A) (A) (A) (A) (A) (A) (A) (A) (A) (A)
                 (A) (A) (A) (A) (A) (A) (A) (A) (A) (A) (A) (A)
                 (A) (A) (A) (A) (A) (A) (A) (A) (A) (A) (A) (A)
                 (A) (A) (A) (A) (A) (A) (A) (A) (A) (A) (A) (A)
                 (A) (A) (A) (A) (A) (A) (A) (A) (A) (A) (A) (A)
                 (A) (A) (A) (A) (A) (A) (A) (A) (A) (A) (A) (A)
                 (A) (A) (A) (A) (A) (A) (A) (A) (A) (A) (A) (A)
                 (A) (A) (A) (A) (A) (A) (A) (A) (A) (A) (A) (A)
                 (A) (A) (A) (A) (A) (A) (A) (A) (A) (A) (A) (A)
                 (A) (A) (A) (A) (A) (A) (A) (A) (A) (A) (A) (A)
                 (A) (A) (A) (A) (A) (A) (A) (A) (A) (A) (A) (A)
                 (A) (A) (A) (A) (A) (A) (A) (A) (A) (A) (A) (A)
                 (A) (A) (A) (A) (A) (A) (A) (A) (A) (A) (A) (A)
                 (A) (A) (A) (A) (A) (A) (A) (A) (A) (A) (A) (A)
                 (A) (A) (A) (A) (A) (A) (A) (A) (A) (A) (A) (A)
                 (A) (A) (A) (A) (A) (A) (A) (A) (A) (A) (A) (A)
                 (A) (A) (A) (A) (A) (A) (A) (A) (A) (A) (A) (A)
                 (A) (A) (A) (A) (A) (A) (A) (A) (A) (A) (A) (A)
                 (A) (A) (A) (A) (A)
 Harris functional with IExCor=  402 diagonalized for initial guess.
 ExpMin= 1.61D-01 ExpMax= 5.48D+03 ExpMxC= 8.25D+02 IAcc=1 IRadAn=         1 AccDes= 0.00D+00
 HarFok:  IExCor=  402 AccDes= 0.00D+00 IRadAn=         1 IDoV= 1
 ScaDFX=  1.000000  1.000000  1.000000  1.000000
 FoFCou: FMM=F IPFlag=           0 FMFlag=      100000 FMFlg1=           0
         NFxFlg=           0 DoJE=T BraDBF=F KetDBF=T FulRan=T
         Omega=  0.000000  0.000000  1.000000  0.000000  0.000000 ICntrl=     500 IOpCl=  0
         NMat0=    1 NMatS0=    1 NMatT0=    0 NMatD0=    1 NMtDS0=    0 NMtDT0=    0
         I1Cent=           4 NGrid=           0.
 Petite list used in FoFCou.
 Requested convergence on RMS density matrix=1.00D-08 within 128 cycles.
 Requested convergence on MAX density matrix=1.00D-06.
 Requested convergence on             energy=1.00D-06.
 No special actions if energy rises.
 Keep R1 ints in memory in canonical form, NReq=1033482968.
 Integral accuracy reduced to 1.0D-05 until final iterations.
 Initial convergence to 1.0D-05 achieved.  Increase integral accuracy.
 SCF Done:  E(RB3LYP) =  -688.978821028     A.U. after   13 cycles
             Convg  =    0.3784D-08             -V/T =  2.0093
