 Entering Gaussian System, Link 0=/data/opt/apps/g09-C01/g09
 Initial command:
 /data/opt/apps/g09-C01/l1.exe /tmp/g09-tuu61186-1307532c21e64fea8x/Gau-1307666.inp -scrdir=/tmp/g09-tuu61186-1307532c21e64fea8x/
 Entering Link 1 = /data/opt/apps/g09-C01/l1.exe PID=   1307675.
  
 Copyright (c) 1988,1990,1992,1993,1995,1998,2003,2009,2011,
            Gaussian, Inc.  All Rights Reserved.
  
 This is part of the Gaussian(R) 09 program.  It is based on
 the Gaussian(R) 03 system (copyright 2003, Gaussian, Inc.),
 the Gaussian(R) 98 system (copyright 1998, Gaussian, Inc.),
 the Gaussian(R) 94 system (copyright 1995, Gaussian, Inc.),
 the Gaussian 92(TM) system (copyright 1992, Gaussian, Inc.),
 the Gaussian 90(TM) system (copyright 1990, Gaussian, Inc.),
 the Gaussian 88(TM) system (copyright 1988, Gaussian, Inc.),
 the Gaussian 86(TM) system (copyright 1986, Carnegie Mellon
 University), and the Gaussian 82(TM) system (copyright 1983,
 Carnegie Mellon University). Gaussian is a federally registered
 trademark of Gaussian, Inc.
  
 This software contains proprietary and confidential information,
 including trade secrets, belonging to Gaussian, Inc.
  
 This software is provided under written license and may be
 used, copied, transmitted, or stored only in accord with that
 written license.
  
 The following legend is applicable only to US Government
 contracts under FAR:
  
                    RESTRICTED RIGHTS LEGEND
  
 Use, reproduction and disclosure by the US Government is
 subject to restrictions as set forth in subparagraphs (a)
 and (c) of the Commercial Computer Software - Restricted
 Rights clause in FAR 52.227-19.
  
 Gaussian, Inc.
 340 Quinnipiac St., Bldg. 40, Wallingford CT 06492
  
  
 ---------------------------------------------------------------
 Warning -- This program may not be used in any manner that
 competes with the business of Gaussian, Inc. or will provide
 assistance to any competitor of Gaussian, Inc.  The licensee
 of this program is prohibited from giving any competitor of
 Gaussian, Inc. access to this program.  By using this program,
 the user acknowledges that Gaussian, Inc. is engaged in the
 business of creating and licensing software in the field of
 computational chemistry and represents and warrants to the
 licensee that it is not a competitor of Gaussian, Inc. and that
 it will not use this program in any manner prohibited above.
 ---------------------------------------------------------------
  

 Cite this work as:
 Gaussian 09, Revision C.01,
 M. J. Frisch, G. W. Trucks, H. B. Schlegel, G. E. Scuseria, 
 M. A. Robb, J. R. Cheeseman, G. Scalmani, V. Barone, B. Mennucci, 
 G. A. Petersson, H. Nakatsuji, M. Caricato, X. Li, H. P. Hratchian, 
 A. F. Izmaylov, J. Bloino, G. Zheng, J. L. Sonnenberg, M. Hada, 
 M. Ehara, K. Toyota, R. Fukuda, J. Hasegawa, M. Ishida, T. Nakajima, 
 Y. Honda, O. Kitao, H. Nakai, T. Vreven, J. A. Montgomery, Jr., 
 J. E. Peralta, F. Ogliaro, M. Bearpark, J. J. Heyd, E. Brothers, 
 K. N. Kudin, V. N. Staroverov, T. Keith, R. Kobayashi, J. Normand, 
 K. Raghavachari, A. Rendell, J. C. Burant, S. S. Iyengar, J. Tomasi, 
 M. Cossi, N. Rega, J. M. Millam, M. Klene, J. E. Knox, J. B. Cross, 
 V. Bakken, C. Adamo, J. Jaramillo, R. Gomperts, R. E. Stratmann, 
 O. Yazyev, A. J. Austin, R. Cammi, C. Pomelli, J. W. Ochterski, 
 R. L. Martin, K. Morokuma, V. G. Zakrzewski, G. A. Voth, 
 P. Salvador, J. J. Dannenberg, S. Dapprich, A. D. Daniels, 
 O. Farkas, J. B. Foresman, J. V. Ortiz, J. Cioslowski, 
 and D. J. Fox, Gaussian, Inc., Wallingford CT, 2010.
 
 ******************************************
 Gaussian 09:  EM64L-G09RevC.01 23-Sep-2011
                24-Apr-2026 
 ******************************************
 %nprocshared=8
 Will use up to    8 processors via shared memory.
 %mem=14GB
 -----------------------------------
 # opt=modredundant b3lyp/6-31g(d,p)
 -----------------------------------
 1/14=-1,18=120,19=15,26=3,38=1/1,3;
 2/9=110,12=2,17=6,18=5,40=1/2;
 3/5=1,6=6,7=101,11=2,16=1,25=1,30=1,71=1,74=-5/1,2,3;
 4//1;
 5/5=2,38=5/2;
 6/7=2,8=2,9=2,10=2,28=1/1;
 7//1,2,3,16;
 1/14=-1,18=20,19=15/3(2);
 2/9=110/2;
 99//99;
 2/9=110/2;
 3/5=1,6=6,7=101,11=2,16=1,25=1,30=1,71=1,74=-5/1,2,3;
 4/5=5,16=3/1;
 5/5=2,38=5/2;
 7//1,2,3,16;
 1/14=-1,18=20,19=15/3(-5);
 2/9=110/2;
 6/7=2,8=2,9=2,10=2,19=2,28=1/1;
 99/9=1/99;
 ---------------
 QM dihedral opt
 ---------------
 Charge =  0 Multiplicity = 1
 Symbolic Z-Matrix:
 C                     0.79747   2.68714  -0.73201 
 C                    -0.17923   1.62306  -0.24457 
 O                    -1.37556   1.72046  -0.49599 
 N                     0.3364    0.5666    0.47268 
 C                    -0.52765  -0.44257   1.10992 
 C                    -2.04065  -0.43769   0.80997 
 O                    -2.80993  -0.08657   1.69544 
 N                    -2.47048  -1.02831  -0.35484 
 C                    -1.62882  -1.18327  -1.52817 
 C                    -3.90212  -0.99591  -0.62482 
 H                     0.24095   3.34792  -1.39552 
 H                     1.65223   2.26949  -1.27153 
 H                     1.18459   3.27875   0.10458 
 H                    -0.12183  -1.43621   0.88191 
 H                    -0.47684  -0.3067    2.19475 
 H                    -0.57987  -1.27863  -1.24814 
 H                    -1.91941  -2.09002  -2.07 
 H                    -1.72273  -0.32229  -2.20275 
 H                    -4.18424  -1.8827   -1.20156 
 H                    -4.43676  -0.98272   0.32307 
 H                    -4.17778  -0.09891  -1.19625 
 C                     1.75123   0.4454    0.82184 
 H                     2.23017   1.42507   0.83502 
 H                     1.83045   0.04666   1.83879 
 C                     2.52497  -0.47468  -0.12641 
 H                     2.50113  -0.07021  -1.15274 
 H                     2.05643  -1.47317  -0.1615 
 O                     3.8478   -0.55564   0.35755 
 C                     4.6768   -1.38748  -0.4296 
 H                     5.66896  -1.37991   0.0267 
 H                     4.30527  -2.42346  -0.45797 
 H                     4.75748  -1.02107  -1.46467 
 
 The following ModRedundant input section has been read:
 D       2       4       5       6 F                                           
 D       4       5       6       8 S  36 10.000                                

 GradGradGradGradGradGradGradGradGradGradGradGradGradGradGradGradGradGrad
 Berny optimization.
 Initialization pass.
                           ----------------------------
                           !    Initial Parameters    !
                           ! (Angstroms and Degrees)  !
 --------------------------                            --------------------------
 ! Name  Definition              Value          Derivative Info.                !
 --------------------------------------------------------------------------------
 ! R1    R(1,2)                  1.5244         estimate D2E/DX2                !
 ! R2    R(1,11)                 1.0893         estimate D2E/DX2                !
 ! R3    R(1,12)                 1.0937         estimate D2E/DX2                !
 ! R4    R(1,13)                 1.0953         estimate D2E/DX2                !
 ! R5    R(2,3)                  1.2263         estimate D2E/DX2                !
 ! R6    R(2,4)                  1.3771         estimate D2E/DX2                !
 ! R7    R(4,5)                  1.4735         estimate D2E/DX2                !
 ! R8    R(4,22)                 1.4623         estimate D2E/DX2                !
 ! R9    R(5,6)                  1.5424         estimate D2E/DX2                !
 ! R10   R(5,14)                 1.0973         estimate D2E/DX2                !
 ! R11   R(5,15)                 1.0945         estimate D2E/DX2                !
 ! R12   R(6,7)                  1.2244         estimate D2E/DX2                !
 ! R13   R(6,8)                  1.3749         estimate D2E/DX2                !
 ! R14   R(8,9)                  1.4523         estimate D2E/DX2                !
 ! R15   R(8,10)                 1.4572         estimate D2E/DX2                !
 ! R16   R(9,16)                 1.0899         estimate D2E/DX2                !
 ! R17   R(9,17)                 1.0955         estimate D2E/DX2                !
 ! R18   R(9,18)                 1.0978         estimate D2E/DX2                !
 ! R19   R(10,19)                1.0948         estimate D2E/DX2                !
 ! R20   R(10,20)                1.0883         estimate D2E/DX2                !
 ! R21   R(10,21)                1.0987         estimate D2E/DX2                !
 ! R22   R(22,23)                1.0906         estimate D2E/DX2                !
 ! R23   R(22,24)                1.0952         estimate D2E/DX2                !
 ! R24   R(22,25)                1.5311         estimate D2E/DX2                !
 ! R25   R(25,26)                1.1034         estimate D2E/DX2                !
 ! R26   R(25,27)                1.1035         estimate D2E/DX2                !
 ! R27   R(25,28)                1.4109         estimate D2E/DX2                !
 ! R28   R(28,29)                1.4138         estimate D2E/DX2                !
 ! R29   R(29,30)                1.0921         estimate D2E/DX2                !
 ! R30   R(29,31)                1.101          estimate D2E/DX2                !
 ! R31   R(29,32)                1.101          estimate D2E/DX2                !
 ! A1    A(2,1,11)             106.9094         estimate D2E/DX2                !
 ! A2    A(2,1,12)             113.0737         estimate D2E/DX2                !
 ! A3    A(2,1,13)             111.0537         estimate D2E/DX2                !
 ! A4    A(11,1,12)            109.2961         estimate D2E/DX2                !
 ! A5    A(11,1,13)            108.5515         estimate D2E/DX2                !
 ! A6    A(12,1,13)            107.8681         estimate D2E/DX2                !
 ! A7    A(1,2,3)              120.2677         estimate D2E/DX2                !
 ! A8    A(1,2,4)              117.5257         estimate D2E/DX2                !
 ! A9    A(3,2,4)              122.2063         estimate D2E/DX2                !
 ! A10   A(2,4,5)              122.0806         estimate D2E/DX2                !
 ! A11   A(2,4,22)             123.3816         estimate D2E/DX2                !
 ! A12   A(5,4,22)             114.0378         estimate D2E/DX2                !
 ! A13   A(4,5,6)              119.2711         estimate D2E/DX2                !
 ! A14   A(4,5,14)             108.2679         estimate D2E/DX2                !
 ! A15   A(4,5,15)             108.4464         estimate D2E/DX2                !
 ! A16   A(6,5,14)             108.9801         estimate D2E/DX2                !
 ! A17   A(6,5,15)             103.7624         estimate D2E/DX2                !
 ! A18   A(14,5,15)            107.5304         estimate D2E/DX2                !
 ! A19   A(5,6,7)              118.462          estimate D2E/DX2                !
 ! A20   A(5,6,8)              118.0372         estimate D2E/DX2                !
 ! A21   A(7,6,8)              122.6458         estimate D2E/DX2                !
 ! A22   A(6,8,9)              123.3068         estimate D2E/DX2                !
 ! A23   A(6,8,10)             117.0355         estimate D2E/DX2                !
 ! A24   A(9,8,10)             114.9644         estimate D2E/DX2                !
 ! A25   A(8,9,16)             111.0719         estimate D2E/DX2                !
 ! A26   A(8,9,17)             109.5223         estimate D2E/DX2                !
 ! A27   A(8,9,18)             111.2966         estimate D2E/DX2                !
 ! A28   A(16,9,17)            108.0558         estimate D2E/DX2                !
 ! A29   A(16,9,18)            107.9893         estimate D2E/DX2                !
 ! A30   A(17,9,18)            108.8156         estimate D2E/DX2                !
 ! A31   A(8,10,19)            109.4359         estimate D2E/DX2                !
 ! A32   A(8,10,20)            108.755          estimate D2E/DX2                !
 ! A33   A(8,10,21)            111.1616         estimate D2E/DX2                !
 ! A34   A(19,10,20)           110.0008         estimate D2E/DX2                !
 ! A35   A(19,10,21)           108.8238         estimate D2E/DX2                !
 ! A36   A(20,10,21)           108.6527         estimate D2E/DX2                !
 ! A37   A(4,22,23)            110.6924         estimate D2E/DX2                !
 ! A38   A(4,22,24)            108.7766         estimate D2E/DX2                !
 ! A39   A(4,22,25)            113.0076         estimate D2E/DX2                !
 ! A40   A(23,22,24)           106.5034         estimate D2E/DX2                !
 ! A41   A(23,22,25)           108.9877         estimate D2E/DX2                !
 ! A42   A(24,22,25)           108.6463         estimate D2E/DX2                !
 ! A43   A(22,25,26)           110.1732         estimate D2E/DX2                !
 ! A44   A(22,25,27)           110.4176         estimate D2E/DX2                !
 ! A45   A(22,25,28)           107.208          estimate D2E/DX2                !
 ! A46   A(26,25,27)           107.0329         estimate D2E/DX2                !
 ! A47   A(26,25,28)           111.1206         estimate D2E/DX2                !
 ! A48   A(27,25,28)           110.9206         estimate D2E/DX2                !
 ! A49   A(25,28,29)           113.1134         estimate D2E/DX2                !
 ! A50   A(28,29,30)           107.2179         estimate D2E/DX2                !
 ! A51   A(28,29,31)           111.7231         estimate D2E/DX2                !
 ! A52   A(28,29,32)           111.7519         estimate D2E/DX2                !
 ! A53   A(30,29,31)           108.8979         estimate D2E/DX2                !
 ! A54   A(30,29,32)           108.9006         estimate D2E/DX2                !
 ! A55   A(31,29,32)           108.2808         estimate D2E/DX2                !
 ! D1    D(11,1,2,3)            -8.1214         estimate D2E/DX2                !
 ! D2    D(11,1,2,4)           171.6555         estimate D2E/DX2                !
 ! D3    D(12,1,2,3)          -128.4474         estimate D2E/DX2                !
 ! D4    D(12,1,2,4)            51.3295         estimate D2E/DX2                !
 ! D5    D(13,1,2,3)           110.1301         estimate D2E/DX2                !
 ! D6    D(13,1,2,4)           -70.093          estimate D2E/DX2                !
 ! D7    D(1,2,4,5)            173.5502         estimate D2E/DX2                !
 ! D8    D(1,2,4,22)             2.1498         estimate D2E/DX2                !
 ! D9    D(3,2,4,5)             -6.6775         estimate D2E/DX2                !
 ! D10   D(3,2,4,22)          -178.0779         estimate D2E/DX2                !
 ! D11   D(2,4,5,6)              8.67           Frozen                          !
 ! D12   D(2,4,5,14)           133.956          estimate D2E/DX2                !
 ! D13   D(2,4,5,15)          -109.6536         estimate D2E/DX2                !
 ! D14   D(22,4,5,6)          -179.1879         estimate D2E/DX2                !
 ! D15   D(22,4,5,14)          -53.9019         estimate D2E/DX2                !
 ! D16   D(22,4,5,15)           62.4885         estimate D2E/DX2                !
 ! D17   D(2,4,22,23)           24.1406         estimate D2E/DX2                !
 ! D18   D(2,4,22,24)          140.8293         estimate D2E/DX2                !
 ! D19   D(2,4,22,25)          -98.4239         estimate D2E/DX2                !
 ! D20   D(5,4,22,23)         -147.8853         estimate D2E/DX2                !
 ! D21   D(5,4,22,24)          -31.1966         estimate D2E/DX2                !
 ! D22   D(5,4,22,25)           89.5502         estimate D2E/DX2                !
 ! D23   D(4,5,6,7)           -109.1672         estimate D2E/DX2                !
 ! D24   D(4,5,6,8)             81.133          Scan                            !
 ! D25   D(14,5,6,7)           125.8881         estimate D2E/DX2                !
 ! D26   D(14,5,6,8)           -43.8117         estimate D2E/DX2                !
 ! D27   D(15,5,6,7)            11.5459         estimate D2E/DX2                !
 ! D28   D(15,5,6,8)          -158.1539         estimate D2E/DX2                !
 ! D29   D(5,6,8,9)            -24.766          estimate D2E/DX2                !
 ! D30   D(5,6,8,10)          -179.2223         estimate D2E/DX2                !
 ! D31   D(7,6,8,9)            165.9934         estimate D2E/DX2                !
 ! D32   D(7,6,8,10)            11.5372         estimate D2E/DX2                !
 ! D33   D(6,8,9,16)            29.5513         estimate D2E/DX2                !
 ! D34   D(6,8,9,17)           148.8279         estimate D2E/DX2                !
 ! D35   D(6,8,9,18)           -90.8084         estimate D2E/DX2                !
 ! D36   D(10,8,9,16)         -175.5148         estimate D2E/DX2                !
 ! D37   D(10,8,9,17)          -56.2382         estimate D2E/DX2                !
 ! D38   D(10,8,9,18)           64.1255         estimate D2E/DX2                !
 ! D39   D(6,8,10,19)         -149.475          estimate D2E/DX2                !
 ! D40   D(6,8,10,20)          -29.2859         estimate D2E/DX2                !
 ! D41   D(6,8,10,21)           90.2937         estimate D2E/DX2                !
 ! D42   D(9,8,10,19)           53.9477         estimate D2E/DX2                !
 ! D43   D(9,8,10,20)          174.1368         estimate D2E/DX2                !
 ! D44   D(9,8,10,21)          -66.2836         estimate D2E/DX2                !
 ! D45   D(4,22,25,26)          61.8084         estimate D2E/DX2                !
 ! D46   D(4,22,25,27)         -56.2095         estimate D2E/DX2                !
 ! D47   D(4,22,25,28)        -177.1503         estimate D2E/DX2                !
 ! D48   D(23,22,25,26)        -61.7019         estimate D2E/DX2                !
 ! D49   D(23,22,25,27)       -179.7199         estimate D2E/DX2                !
 ! D50   D(23,22,25,28)         59.3394         estimate D2E/DX2                !
 ! D51   D(24,22,25,26)       -177.3708         estimate D2E/DX2                !
 ! D52   D(24,22,25,27)         64.6113         estimate D2E/DX2                !
 ! D53   D(24,22,25,28)        -56.3295         estimate D2E/DX2                !
 ! D54   D(22,25,28,29)        179.7134         estimate D2E/DX2                !
 ! D55   D(26,25,28,29)        -59.8455         estimate D2E/DX2                !
 ! D56   D(27,25,28,29)         59.0912         estimate D2E/DX2                !
 ! D57   D(25,28,29,30)        179.9376         estimate D2E/DX2                !
 ! D58   D(25,28,29,31)        -60.8226         estimate D2E/DX2                !
 ! D59   D(25,28,29,32)         60.6779         estimate D2E/DX2                !
 --------------------------------------------------------------------------------
 Trust Radius=3.00D-01 FncErr=1.00D-07 GrdErr=1.00D-06
 Number of optimizations in scan=  37
 Number of steps in this run=    155 maximum allowed number of steps=    192.
 GradGradGradGradGradGradGradGradGradGradGradGradGradGradGradGradGradGrad

                          Input orientation:                          
 ---------------------------------------------------------------------
 Center     Atomic      Atomic             Coordinates (Angstroms)
 Number     Number       Type             X           Y           Z
 ---------------------------------------------------------------------
      1          6           0        0.797471    2.687144   -0.732005
      2          6           0       -0.179227    1.623064   -0.244569
      3          8           0       -1.375563    1.720459   -0.495988
      4          7           0        0.336396    0.566598    0.472676
      5          6           0       -0.527654   -0.442567    1.109920
      6          6           0       -2.040648   -0.437685    0.809970
      7          8           0       -2.809932   -0.086574    1.695437
      8          7           0       -2.470480   -1.028308   -0.354838
      9          6           0       -1.628822   -1.183271   -1.528166
     10          6           0       -3.902121   -0.995909   -0.624818
     11          1           0        0.240950    3.347917   -1.395521
     12          1           0        1.652228    2.269487   -1.271530
     13          1           0        1.184586    3.278750    0.104576
     14          1           0       -0.121832   -1.436210    0.881907
     15          1           0       -0.476840   -0.306697    2.194750
     16          1           0       -0.579866   -1.278634   -1.248139
     17          1           0       -1.919411   -2.090021   -2.069995
     18          1           0       -1.722731   -0.322292   -2.202748
     19          1           0       -4.184244   -1.882702   -1.201558
     20          1           0       -4.436758   -0.982718    0.323065
     21          1           0       -4.177780   -0.098906   -1.196252
     22          6           0        1.751226    0.445402    0.821842
     23          1           0        2.230173    1.425071    0.835022
     24          1           0        1.830447    0.046662    1.838785
     25          6           0        2.524966   -0.474681   -0.126408
     26          1           0        2.501132   -0.070214   -1.152741
     27          1           0        2.056433   -1.473165   -0.161503
     28          8           0        3.847800   -0.555636    0.357545
     29          6           0        4.676801   -1.387481   -0.429598
     30          1           0        5.668958   -1.379905    0.026699
     31          1           0        4.305265   -2.423464   -0.457965
     32          1           0        4.757484   -1.021069   -1.464668
 ---------------------------------------------------------------------
                    Distance matrix (angstroms):
                    1          2          3          4          5
     1  C    0.000000
     2  C    1.524401   0.000000
     3  O    2.390034   1.226343   0.000000
     4  N    2.482048   1.377109   2.280462   0.000000
     5  C    3.865713   2.494569   2.824283   1.473457   0.000000
     6  C    4.494125   2.970459   2.608726   2.602439   1.542448
     7  O    5.157455   3.688779   3.182000   3.438191   2.382930
     8  N    4.962494   3.505962   2.962176   3.332725   2.502635
     9  C    4.636904   3.409467   3.092116   3.305676   2.953085
    10  C    5.971812   4.567663   3.711974   4.648758   3.834388
    11  H    1.089307   2.115740   2.463918   3.351866   4.608227
    12  H    1.093679   2.196984   3.173392   2.770108   4.216447
    13  H    1.095319   2.173289   3.056683   2.865431   4.217900
    14  H    4.522375   3.260583   3.665378   2.094918   1.097273
    15  H    4.376397   3.124552   3.486708   2.095122   1.094486
    16  H    4.229757   3.096371   3.192714   2.684329   2.502434
    17  H    5.656233   4.488588   4.158488   4.314101   3.842259
    18  H    4.191802   3.162480   2.684471   3.491135   3.523698
    19  H    6.776537   5.407993   4.622693   5.407247   4.559339
    20  H    6.479060   5.023831   4.165205   5.020534   4.023928
    21  H    5.721077   4.456378   3.413631   4.858601   4.331276
    22  C    2.889549   2.500154   3.624811   1.462310   2.462676
    23  H    2.470028   2.647627   3.854890   2.110607   3.342043
    24  H    3.827290   3.296088   4.304795   2.090162   2.516193
    25  C    3.653508   3.424494   4.491031   2.496598   3.293634
    26  H    3.268410   3.297922   4.320486   2.780934   3.798924
    27  H    4.383906   3.819910   4.699969   2.742507   3.058783
    28  O    4.583366   4.618032   5.761306   3.688173   4.441109
    29  C    5.634112   5.716522   6.804029   4.844754   5.509023
    30  H    6.391237   6.579717   7.714320   5.694206   6.360029
    31  H    6.204678   6.044055   7.031739   5.055540   5.453377
    32  H    5.474426   5.731596   6.787384   5.081339   5.907271
                    6          7          8          9         10
     6  C    0.000000
     7  O    1.224389   0.000000
     8  N    1.374907   2.281604   0.000000
     9  C    2.488449   3.604078   1.452274   0.000000
    10  C    2.415639   2.720910   1.457235   2.453371   0.000000
    11  H    4.939703   5.536933   5.252258   4.903601   6.052094
    12  H    5.029787   5.853613   5.358404   4.769978   6.475480
    13  H    4.971077   5.460075   5.667567   5.521842   6.684259
    14  H    2.164274   3.115964   2.685530   2.853673   4.093247
    15  H    2.092909   2.396056   3.315980   3.994440   4.489713
    16  H    2.660243   3.880572   2.105961   1.089871   3.392026
    17  H    3.322516   4.357213   2.091094   1.095544   2.686402
    18  H    3.031643   4.053815   2.114795   1.097800   2.773691
    19  H    3.275565   3.675240   2.093779   2.669468   1.094817
    20  H    2.505091   2.309338   2.080356   3.369241   1.088344
    21  H    2.950768   3.198910   2.118169   2.789839   1.098699
    22  C    3.893365   4.674434   4.623765   4.427170   6.010868
    23  H    4.659442   5.331795   5.434241   5.223021   6.752578
    24  H    4.034653   4.644504   4.946263   4.981530   6.326028
    25  C    4.660794   5.650742   5.031219   4.440831   6.467421
    26  H    4.961354   6.026590   5.125575   4.293758   6.491322
    27  H    4.336133   5.390025   4.552825   3.941181   5.995565
    28  O    5.906981   6.807009   6.375858   5.826081   7.824331
    29  C    6.896576   7.890457   7.156691   6.403861   8.590072
    30  H    7.806364   8.737790   8.155957   7.464172   9.600910
    31  H    6.769165   7.792575   6.918657   6.156037   8.332283
    32  H    7.192282   8.253807   7.312677   6.388681   8.700272
                   11         12         13         14         15
    11  H    0.000000
    12  H    1.780475   0.000000
    13  H    1.773563   1.769454   0.000000
    14  H    5.310947   4.638617   4.953970   0.000000
    15  H    5.173149   4.815055   4.470413   1.767876   0.000000
    16  H    4.701110   4.191891   5.070787   2.184427   3.578933
    17  H    5.890097   5.692052   6.571701   3.517454   4.842448
    18  H    4.240058   4.356011   5.171435   3.649491   4.570610
    19  H    6.854148   7.163098   7.561145   4.587306   5.269112
    20  H    6.602188   7.084866   7.057433   4.374534   4.431835
    21  H    5.607626   6.293167   6.469597   4.749510   5.023846
    22  C    3.952496   2.778362   2.977148   2.655639   2.723014
    23  H    3.553824   2.341927   2.250095   3.704194   3.489384
    24  H    4.887282   3.827110   3.724381   2.631714   2.361175
    25  C    4.630295   3.098941   3.992270   2.991116   3.798267
    26  H    4.104995   2.491776   3.811784   3.589663   4.486640
    27  H    5.297321   3.924664   4.838555   2.415556   3.651034
    28  O    5.596457   3.931379   4.675384   4.099798   4.705295
    29  C    6.560013   4.819783   5.852745   4.974867   5.883478
    30  H    7.337457   5.580106   6.466740   5.853870   6.604775
    31  H    7.120850   5.451998   6.524595   4.729600   5.863969
    32  H    6.284258   4.528540   5.806597   5.430146   6.426493
                   16         17         18         19         20
    16  H    0.000000
    17  H    1.768665   0.000000
    18  H    1.769748   1.783584   0.000000
    19  H    3.654943   2.434468   3.081608   0.000000
    20  H    4.175148   3.645530   3.765878   1.788354   0.000000
    21  H    3.786745   3.134995   2.662743   1.783816   1.776659
    22  C    3.562459   5.316452   4.669676   6.689097   6.370200
    23  H    4.421074   6.165553   5.282686   7.498918   7.106864
    24  H    4.134624   5.822835   5.393996   7.010181   6.529540
    25  C    3.397735   5.112665   4.730469   6.939162   6.994693
    26  H    3.310880   4.945925   4.359711   6.926886   7.151572
    27  H    2.858092   4.453110   4.446715   6.339991   6.529692
    28  O    4.764995   6.442671   6.135174   8.288886   8.295631
    29  C    5.321128   6.833336   6.725526   8.908383   9.153540
    30  H    6.378344   7.904665   7.792692   9.942183  10.117860
    31  H    5.079322   6.438666   6.617849   8.539152   8.894308
    32  H    5.347946   6.788962   6.559439   8.986998   9.366512
                   21         22         23         24         25
    21  H    0.000000
    22  C    6.286659   0.000000
    23  H    6.892782   1.090557   0.000000
    24  H    6.732862   1.095191   1.751380   0.000000
    25  C    6.797983   1.531145   2.149490   2.148520   0.000000
    26  H    6.679115   2.174212   2.502099   3.068013   1.103413
    27  H    6.467202   2.177388   3.069694   2.522320   1.103506
    28  O    8.187357   2.369234   2.601519   2.574208   1.410905
    29  C    8.980634   3.672132   3.936458   3.912040   2.357015
    30  H   10.004740   4.394613   4.510712   4.478048   3.275295
    31  H    8.826703   4.048631   4.559500   4.183456   2.660291
    32  H    8.986733   4.051697   4.202318   4.540969   2.659627
                   26         27         28         29         30
    26  H    0.000000
    27  H    1.774424   0.000000
    28  O    2.080892   2.078525   0.000000
    29  C    2.644175   2.635440   1.413790   0.000000
    30  H    3.625119   3.618626   2.026202   1.092081   0.000000
    31  H    3.045553   2.459310   2.088806   1.100956   1.784257
    32  H    2.468309   3.032871   2.089166   1.100971   1.784299
                   31         32
    31  H    0.000000
    32  H    1.784563   0.000000
 Stoichiometry    C9H18N2O3
 Framework group  C1[X(C9H18N2O3)]
 Deg. of freedom    90
 Full point group                 C1      NOp   1
 Largest Abelian subgroup         C1      NOp   1
 Largest concise Abelian subgroup C1      NOp   1
                         Standard orientation:                         
 ---------------------------------------------------------------------
 Center     Atomic      Atomic             Coordinates (Angstroms)
 Number     Number       Type             X           Y           Z
 ---------------------------------------------------------------------
      1          6           0        0.797471    2.687144   -0.732005
      2          6           0       -0.179227    1.623064   -0.244569
      3          8           0       -1.375563    1.720459   -0.495988
      4          7           0        0.336396    0.566598    0.472676
      5          6           0       -0.527654   -0.442567    1.109920
      6          6           0       -2.040648   -0.437685    0.809970
      7          8           0       -2.809932   -0.086574    1.695437
      8          7           0       -2.470480   -1.028308   -0.354838
      9          6           0       -1.628822   -1.183271   -1.528166
     10          6           0       -3.902121   -0.995909   -0.624818
     11          1           0        0.240950    3.347917   -1.395521
     12          1           0        1.652228    2.269487   -1.271530
     13          1           0        1.184586    3.278750    0.104576
     14          1           0       -0.121832   -1.436210    0.881907
     15          1           0       -0.476840   -0.306697    2.194750
     16          1           0       -0.579866   -1.278634   -1.248139
     17          1           0       -1.919411   -2.090021   -2.069995
     18          1           0       -1.722731   -0.322292   -2.202748
     19          1           0       -4.184244   -1.882702   -1.201558
     20          1           0       -4.436758   -0.982718    0.323065
     21          1           0       -4.177780   -0.098906   -1.196252
     22          6           0        1.751226    0.445402    0.821842
     23          1           0        2.230173    1.425071    0.835022
     24          1           0        1.830447    0.046662    1.838785
     25          6           0        2.524966   -0.474681   -0.126408
     26          1           0        2.501132   -0.070214   -1.152741
     27          1           0        2.056433   -1.473165   -0.161503
     28          8           0        3.847800   -0.555636    0.357545
     29          6           0        4.676801   -1.387481   -0.429598
     30          1           0        5.668958   -1.379905    0.026699
     31          1           0        4.305265   -2.423464   -0.457965
     32          1           0        4.757484   -1.021069   -1.464668
 ---------------------------------------------------------------------
 Rotational constants (GHZ):      1.0864626      0.3481784      0.3166519
 Standard basis: 6-31G(d,p) (6D, 7F)
 There are   300 symmetry adapted basis functions of A   symmetry.
 Integral buffers will be    131072 words long.
 Raffenetti 2 integral format.
 Two-electron integral symmetry is turned on.
   300 basis functions,   518 primitive gaussians,   300 cartesian basis functions
    55 alpha electrons       55 beta electrons
       nuclear repulsion energy       976.4901339499 Hartrees.
 NAtoms=   32 NActive=   32 NUniq=   32 SFac= 1.00D+00 NAtFMM=   60 NAOKFM=F Big=F
 One-electron integrals computed using PRISM.
 NBasis=   300 RedAO= T  NBF=   300
 NBsUse=   300 1.00D-06 NBFU=   300
 Harris functional with IExCor=  402 diagonalized for initial guess.
 ExpMin= 1.61D-01 ExpMax= 5.48D+03 ExpMxC= 8.25D+02 IAcc=1 IRadAn=         1 AccDes= 0.00D+00
 HarFok:  IExCor=  402 AccDes= 0.00D+00 IRadAn=         1 IDoV= 1
 ScaDFX=  1.000000  1.000000  1.000000  1.000000
 FoFCou: FMM=F IPFlag=           0 FMFlag=      100000 FMFlg1=           0
         NFxFlg=           0 DoJE=T BraDBF=F KetDBF=T FulRan=T
         Omega=  0.000000  0.000000  1.000000  0.000000  0.000000 ICntrl=     500 IOpCl=  0
         NMat0=    1 NMatS0=    1 NMatT0=    0 NMatD0=    1 NMtDS0=    0 NMtDT0=    0
         I1Cent=           4 NGrid=           0.
 Petite list used in FoFCou.
 Initial guess orbital symmetries:
       Occupied  (A) (A) (A) (A) (A) (A) (A) (A) (A) (A) (A) (A)
                 (A) (A) (A) (A) (A) (A) (A) (A) (A) (A) (A) (A)
                 (A) (A) (A) (A) (A) (A) (A) (A) (A) (A) (A) (A)
                 (A) (A) (A) (A) (A) (A) (A) (A) (A) (A) (A) (A)
                 (A) (A) (A) (A) (A) (A) (A)
       Virtual   (A) (A) (A) (A) (A) (A) (A) (A) (A) (A) (A) (A)
                 (A) (A) (A) (A) (A) (A) (A) (A) (A) (A) (A) (A)
                 (A) (A) (A) (A) (A) (A) (A) (A) (A) (A) (A) (A)
                 (A) (A) (A) (A) (A) (A) (A) (A) (A) (A) (A) (A)
                 (A) (A) (A) (A) (A) (A) (A) (A) (A) (A) (A) (A)
                 (A) (A) (A) (A) (A) (A) (A) (A) (A) (A) (A) (A)
                 (A) (A) (A) (A) (A) (A) (A) (A) (A) (A) (A) (A)
                 (A) (A) (A) (A) (A) (A) (A) (A) (A) (A) (A) (A)
                 (A) (A) (A) (A) (A) (A) (A) (A) (A) (A) (A) (A)
                 (A) (A) (A) (A) (A) (A) (A) (A) (A) (A) (A) (A)
                 (A) (A) (A) (A) (A) (A) (A) (A) (A) (A) (A) (A)
                 (A) (A) (A) (A) (A) (A) (A) (A) (A) (A) (A) (A)
                 (A) (A) (A) (A) (A) (A) (A) (A) (A) (A) (A) (A)
                 (A) (A) (A) (A) (A) (A) (A) (A) (A) (A) (A) (A)
                 (A) (A) (A) (A) (A) (A) (A) (A) (A) (A) (A) (A)
                 (A) (A) (A) (A) (A) (A) (A) (A) (A) (A) (A) (A)
                 (A) (A) (A) (A) (A) (A) (A) (A) (A) (A) (A) (A)
                 (A) (A) (A) (A) (A) (A) (A) (A) (A) (A) (A) (A)
                 (A) (A) (A) (A) (A) (A) (A) (A) (A) (A) (A) (A)
                 (A) (A) (A) (A) (A) (A) (A) (A) (A) (A) (A) (A)
                 (A) (A) (A) (A) (A)
 The electronic state of the initial guess is 1-A.
 Requested convergence on RMS density matrix=1.00D-08 within 128 cycles.
 Requested convergence on MAX density matrix=1.00D-06.
 Requested convergence on             energy=1.00D-06.
 No special actions if energy rises.
 Keep R1 ints in memory in canonical form, NReq=1033484046.
 Integral accuracy reduced to 1.0D-05 until final iterations.
 Initial convergence to 1.0D-05 achieved.  Increase integral accuracy.
 SCF Done:  E(RB3LYP) =  -688.986904251     A.U. after   14 cycles
             Convg  =    0.8463D-08             -V/T =  2.0093

 **********************************************************************

            Population analysis using the SCF density.

 **********************************************************************

 Orbital symmetries:
       Occupied  (A) (A) (A) (A) (A) (A) (A) (A) (A) (A) (A) (A)
                 (A) (A) (A) (A) (A) (A) (A) (A) (A) (A) (A) (A)
                 (A) (A) (A) (A) (A) (A) (A) (A) (A) (A) (A) (A)
                 (A) (A) (A) (A) (A) (A) (A) (A) (A) (A) (A) (A)
                 (A) (A) (A) (A) (A) (A) (A)
       Virtual   (A) (A) (A) (A) (A) (A) (A) (A) (A) (A) (A) (A)
                 (A) (A) (A) (A) (A) (A) (A) (A) (A) (A) (A) (A)
                 (A) (A) (A) (A) (A) (A) (A) (A) (A) (A) (A) (A)
                 (A) (A) (A) (A) (A) (A) (A) (A) (A) (A) (A) (A)
                 (A) (A) (A) (A) (A) (A) (A) (A) (A) (A) (A) (A)
                 (A) (A) (A) (A) (A) (A) (A) (A) (A) (A) (A) (A)
                 (A) (A) (A) (A) (A) (A) (A) (A) (A) (A) (A) (A)
                 (A) (A) (A) (A) (A) (A) (A) (A) (A) (A) (A) (A)
                 (A) (A) (A) (A) (A) (A) (A) (A) (A) (A) (A) (A)
                 (A) (A) (A) (A) (A) (A) (A) (A) (A) (A) (A) (A)
                 (A) (A) (A) (A) (A) (A) (A) (A) (A) (A) (A) (A)
                 (A) (A) (A) (A) (A) (A) (A) (A) (A) (A) (A) (A)
                 (A) (A) (A) (A) (A) (A) (A) (A) (A) (A) (A) (A)
                 (A) (A) (A) (A) (A) (A) (A) (A) (A) (A) (A) (A)
                 (A) (A) (A) (A) (A) (A) (A) (A) (A) (A) (A) (A)
                 (A) (A) (A) (A) (A) (A) (A) (A) (A) (A) (A) (A)
                 (A) (A) (A) (A) (A) (A) (A) (A) (A) (A) (A) (A)
                 (A) (A) (A) (A) (A) (A) (A) (A) (A) (A) (A) (A)
                 (A) (A) (A) (A) (A) (A) (A) (A) (A) (A) (A) (A)
                 (A) (A) (A) (A) (A) (A) (A) (A) (A) (A) (A) (A)
                 (A) (A) (A) (A) (A)
 The electronic state is 1-A.
 Alpha  occ. eigenvalues --  -19.16511 -19.11362 -19.09618 -14.37500 -14.35085
 Alpha  occ. eigenvalues --  -10.29217 -10.27708 -10.25009 -10.24102 -10.23612
 Alpha  occ. eigenvalues --  -10.23074 -10.21497 -10.19931 -10.19594  -1.04915
 Alpha  occ. eigenvalues --   -1.03659  -1.01672  -0.94054  -0.91942  -0.77750
 Alpha  occ. eigenvalues --   -0.76066  -0.72129  -0.70862  -0.68799  -0.67041
 Alpha  occ. eigenvalues --   -0.63450  -0.57026  -0.53192  -0.51505  -0.50667
 Alpha  occ. eigenvalues --   -0.48968  -0.48696  -0.47039  -0.46150  -0.46004
 Alpha  occ. eigenvalues --   -0.45537  -0.44362  -0.43097  -0.42409  -0.40274
 Alpha  occ. eigenvalues --   -0.39795  -0.39498  -0.39368  -0.39017  -0.38180
 Alpha  occ. eigenvalues --   -0.37069  -0.36657  -0.35748  -0.35019  -0.33529
 Alpha  occ. eigenvalues --   -0.27202  -0.25163  -0.24761  -0.23823  -0.22353
 Alpha virt. eigenvalues --    0.02165   0.02826   0.06495   0.07826   0.08910
 Alpha virt. eigenvalues --    0.10779   0.11791   0.12111   0.13354   0.14222
 Alpha virt. eigenvalues --    0.14991   0.15299   0.15620   0.15851   0.16498
 Alpha virt. eigenvalues --    0.16817   0.17486   0.17771   0.18791   0.19277
 Alpha virt. eigenvalues --    0.20370   0.20588   0.21177   0.21632   0.22849
 Alpha virt. eigenvalues --    0.24375   0.25002   0.26548   0.29563   0.33194
 Alpha virt. eigenvalues --    0.34801   0.38201   0.40342   0.47468   0.48165
 Alpha virt. eigenvalues --    0.49933   0.50629   0.51589   0.53084   0.53608
 Alpha virt. eigenvalues --    0.54769   0.55116   0.55237   0.55504   0.57242
 Alpha virt. eigenvalues --    0.58860   0.60157   0.62822   0.64306   0.64423
 Alpha virt. eigenvalues --    0.66159   0.67910   0.68872   0.69829   0.72242
 Alpha virt. eigenvalues --    0.73511   0.73665   0.75017   0.76002   0.77153
 Alpha virt. eigenvalues --    0.78365   0.78861   0.79851   0.81917   0.82760
 Alpha virt. eigenvalues --    0.83002   0.84424   0.85255   0.85533   0.87216
 Alpha virt. eigenvalues --    0.87741   0.88288   0.89011   0.89492   0.90740
 Alpha virt. eigenvalues --    0.91009   0.92319   0.93049   0.93757   0.94658
 Alpha virt. eigenvalues --    0.95897   0.96487   0.98145   0.98847   1.00318
 Alpha virt. eigenvalues --    1.03050   1.03934   1.05486   1.05737   1.09243
 Alpha virt. eigenvalues --    1.11126   1.15409   1.17898   1.18722   1.22043
 Alpha virt. eigenvalues --    1.24466   1.28235   1.30193   1.33370   1.34118
 Alpha virt. eigenvalues --    1.35939   1.36376   1.37125   1.38753   1.40426
 Alpha virt. eigenvalues --    1.42661   1.45344   1.47937   1.50249   1.54478
 Alpha virt. eigenvalues --    1.56413   1.57661   1.60347   1.65395   1.66607
 Alpha virt. eigenvalues --    1.67960   1.69395   1.70540   1.72113   1.74290
 Alpha virt. eigenvalues --    1.75935   1.78105   1.79686   1.80645   1.83385
 Alpha virt. eigenvalues --    1.83955   1.84689   1.86731   1.87259   1.87853
 Alpha virt. eigenvalues --    1.88900   1.89788   1.94239   1.94512   1.94949
 Alpha virt. eigenvalues --    1.95728   1.96528   1.97303   1.99133   1.99347
 Alpha virt. eigenvalues --    2.01093   2.01573   2.02123   2.02343   2.03271
 Alpha virt. eigenvalues --    2.04058   2.04531   2.04853   2.07168   2.07494
 Alpha virt. eigenvalues --    2.08550   2.08928   2.09868   2.11075   2.12246
 Alpha virt. eigenvalues --    2.13420   2.14268   2.17155   2.18647   2.19468
 Alpha virt. eigenvalues --    2.21124   2.22419   2.25155   2.27603   2.28647
 Alpha virt. eigenvalues --    2.30528   2.32878   2.36037   2.36867   2.39143
 Alpha virt. eigenvalues --    2.43660   2.44081   2.46923   2.49021   2.51074
 Alpha virt. eigenvalues --    2.51746   2.53264   2.54987   2.56215   2.57262
 Alpha virt. eigenvalues --    2.59133   2.60702   2.62173   2.62734   2.65724
 Alpha virt. eigenvalues --    2.66263   2.67772   2.68545   2.70093   2.71445
 Alpha virt. eigenvalues --    2.72042   2.73577   2.74535   2.77045   2.77344
 Alpha virt. eigenvalues --    2.79628   2.83488   2.83999   2.84934   2.85866
 Alpha virt. eigenvalues --    2.86690   2.88399   2.89390   2.91164   2.92970
 Alpha virt. eigenvalues --    2.95753   2.96838   3.00897   3.04421   3.08990
 Alpha virt. eigenvalues --    3.10818   3.12964   3.16193   3.16980   3.19800
 Alpha virt. eigenvalues --    3.22092   3.24555   3.26225   3.34301   3.35302
 Alpha virt. eigenvalues --    3.37042   3.40321   3.41483   3.42044   3.42844
 Alpha virt. eigenvalues --    3.44025   3.45498   3.45717   3.47433   3.51643
 Alpha virt. eigenvalues --    3.54017   3.95265   4.01153   4.05700   4.12652
 Alpha virt. eigenvalues --    4.21584   4.32874   4.35073   4.42056   4.45160
 Alpha virt. eigenvalues --    4.52090   4.54336   4.57973   4.69536   4.73146
          Condensed to atoms (all electrons):
              1          2          3          4          5          6
     1  C    5.158986   0.347474  -0.077598  -0.124193   0.005069   0.000319
     2  C    0.347474   4.370588   0.561611   0.263241  -0.033677   0.002637
     3  O   -0.077598   0.561611   8.087975  -0.089034  -0.008827   0.027287
     4  N   -0.124193   0.263241  -0.089034   7.123475   0.246722  -0.024458
     5  C    0.005069  -0.033677  -0.008827   0.246722   5.076750   0.321823
     6  C    0.000319   0.002637   0.027287  -0.024458   0.321823   4.351035
     7  O   -0.000020   0.000704  -0.004342   0.000916  -0.076433   0.574282
     8  N   -0.000066  -0.001637  -0.010131   0.003267  -0.109985   0.259890
     9  C    0.000079   0.001964   0.001444  -0.005002  -0.001287  -0.023793
    10  C   -0.000001  -0.000021  -0.000505  -0.000125   0.006273  -0.031420
    11  H    0.368339  -0.023052   0.005295   0.004575  -0.000115  -0.000007
    12  H    0.358431  -0.022224   0.001850   0.002330  -0.000008  -0.000015
    13  H    0.364060  -0.020639   0.000861   0.002092  -0.000165  -0.000004
    14  H   -0.000182   0.002139   0.000459  -0.049246   0.350703  -0.026092
    15  H   -0.000127   0.000622   0.000490  -0.039133   0.368846  -0.024111
    16  H   -0.000078  -0.000055  -0.001637   0.003359   0.007441  -0.008843
    17  H    0.000001   0.000011   0.000197   0.000080  -0.000442   0.002414
    18  H    0.000138   0.001675   0.005971  -0.001131  -0.000034  -0.001122
    19  H    0.000000  -0.000002  -0.000006   0.000000  -0.000165   0.003946
    20  H    0.000000  -0.000007  -0.000012  -0.000003   0.000783  -0.004462
    21  H    0.000004   0.000003   0.001214  -0.000003  -0.000098  -0.000963
    22  C    0.001668  -0.021225   0.002753   0.243821  -0.038964   0.002910
    23  H    0.007496  -0.008671   0.000103  -0.029294   0.003329  -0.000112
    24  H   -0.000263   0.002554  -0.000072  -0.036351  -0.000679   0.000112
    25  C   -0.001816  -0.000970  -0.000024  -0.052546  -0.002829  -0.000077
    26  H   -0.000872   0.001787  -0.000046   0.002824   0.000044   0.000008
    27  H    0.000116  -0.000200   0.000001   0.001227   0.000617  -0.000078
    28  O    0.000009   0.000014   0.000000   0.002096  -0.000007   0.000000
    29  C    0.000001  -0.000002   0.000000  -0.000127   0.000000   0.000000
    30  H    0.000000   0.000000   0.000000   0.000001   0.000000   0.000000
    31  H    0.000000   0.000000   0.000000   0.000011  -0.000002   0.000000
    32  H   -0.000001   0.000000   0.000000   0.000009   0.000000   0.000000
              7          8          9         10         11         12
     1  C   -0.000020  -0.000066   0.000079  -0.000001   0.368339   0.358431
     2  C    0.000704  -0.001637   0.001964  -0.000021  -0.023052  -0.022224
     3  O   -0.004342  -0.010131   0.001444  -0.000505   0.005295   0.001850
     4  N    0.000916   0.003267  -0.005002  -0.000125   0.004575   0.002330
     5  C   -0.076433  -0.109985  -0.001287   0.006273  -0.000115  -0.000008
     6  C    0.574282   0.259890  -0.023793  -0.031420  -0.000007  -0.000015
     7  O    8.090955  -0.093383   0.002868  -0.007903   0.000000   0.000000
     8  N   -0.093383   7.015841   0.293686   0.300407   0.000002   0.000004
     9  C    0.002868   0.293686   4.809896  -0.051948  -0.000008  -0.000009
    10  C   -0.007903   0.300407  -0.051948   4.808922   0.000000   0.000000
    11  H    0.000000   0.000002  -0.000008   0.000000   0.541765  -0.023115
    12  H    0.000000   0.000004  -0.000009   0.000000  -0.023115   0.588973
    13  H    0.000001   0.000000   0.000001   0.000000  -0.020845  -0.029652
    14  H    0.002419   0.004518  -0.001396  -0.000067   0.000004   0.000005
    15  H    0.006912   0.004855   0.000131  -0.000168   0.000001  -0.000006
    16  H    0.000046  -0.029991   0.380731   0.004630   0.000001   0.000025
    17  H   -0.000075  -0.042537   0.381776  -0.004322   0.000000  -0.000001
    18  H    0.000056  -0.045926   0.379449  -0.000932   0.000013  -0.000027
    19  H    0.000738  -0.042100  -0.002628   0.378598   0.000000   0.000000
    20  H    0.020096  -0.034717   0.004752   0.385036   0.000000   0.000000
    21  H    0.000880  -0.047675  -0.002208   0.388580   0.000000   0.000000
    22  C   -0.000067  -0.000162   0.000185   0.000003   0.000331  -0.001368
    23  H    0.000002   0.000004  -0.000010   0.000000   0.000020  -0.002438
    24  H   -0.000011  -0.000004  -0.000018   0.000000  -0.000011   0.000219
    25  C    0.000000   0.000000  -0.000025   0.000000   0.000020  -0.000208
    26  H    0.000000  -0.000001  -0.000047   0.000000  -0.000042   0.003989
    27  H    0.000000   0.000012  -0.000253   0.000000   0.000001  -0.000107
    28  O    0.000000   0.000000   0.000000   0.000000   0.000000  -0.000073
    29  C    0.000000   0.000000   0.000000   0.000000   0.000000  -0.000004
    30  H    0.000000   0.000000   0.000000   0.000000   0.000000   0.000000
    31  H    0.000000   0.000000   0.000000   0.000000   0.000000   0.000000
    32  H    0.000000   0.000000   0.000000   0.000000   0.000000   0.000006
             13         14         15         16         17         18
     1  C    0.364060  -0.000182  -0.000127  -0.000078   0.000001   0.000138
     2  C   -0.020639   0.002139   0.000622  -0.000055   0.000011   0.001675
     3  O    0.000861   0.000459   0.000490  -0.001637   0.000197   0.005971
     4  N    0.002092  -0.049246  -0.039133   0.003359   0.000080  -0.001131
     5  C   -0.000165   0.350703   0.368846   0.007441  -0.000442  -0.000034
     6  C   -0.000004  -0.026092  -0.024111  -0.008843   0.002414  -0.001122
     7  O    0.000001   0.002419   0.006912   0.000046  -0.000075   0.000056
     8  N    0.000000   0.004518   0.004855  -0.029991  -0.042537  -0.045926
     9  C    0.000001  -0.001396   0.000131   0.380731   0.381776   0.379449
    10  C    0.000000  -0.000067  -0.000168   0.004630  -0.004322  -0.000932
    11  H   -0.020845   0.000004   0.000001   0.000001   0.000000   0.000013
    12  H   -0.029652   0.000005  -0.000006   0.000025  -0.000001  -0.000027
    13  H    0.565584  -0.000007   0.000024   0.000001   0.000000   0.000001
    14  H   -0.000007   0.643300  -0.040244  -0.003424   0.000024   0.000391
    15  H    0.000024  -0.040244   0.578004   0.000370   0.000006  -0.000045
    16  H    0.000001  -0.003424   0.000370   0.600685  -0.027865  -0.034828
    17  H    0.000000   0.000024   0.000006  -0.027865   0.623305  -0.044728
    18  H    0.000001   0.000391  -0.000045  -0.034828  -0.044728   0.605674
    19  H    0.000000  -0.000016   0.000005   0.000132   0.006207  -0.001755
    20  H    0.000000  -0.000065  -0.000016  -0.000237   0.000117  -0.000230
    21  H    0.000000   0.000004  -0.000001  -0.000156  -0.001664   0.007204
    22  C   -0.003201   0.001679  -0.007264  -0.000923   0.000005  -0.000022
    23  H    0.002159  -0.000009   0.000474   0.000020   0.000000  -0.000001
    24  H    0.000168  -0.003576   0.006386   0.000064   0.000000  -0.000001
    25  C    0.000111   0.001188  -0.000551   0.000526  -0.000007   0.000010
    26  H    0.000061  -0.000231  -0.000002   0.000362   0.000000  -0.000001
    27  H   -0.000007   0.002991   0.000199   0.001476   0.000015  -0.000019
    28  O   -0.000005  -0.000152   0.000007   0.000001   0.000000   0.000000
    29  C    0.000000   0.000004   0.000000  -0.000001   0.000000   0.000000
    30  H    0.000000   0.000000   0.000000   0.000000   0.000000   0.000000
    31  H    0.000000   0.000003   0.000000   0.000002   0.000000   0.000000
    32  H    0.000000   0.000000   0.000000   0.000000   0.000000   0.000000
             19         20         21         22         23         24
     1  C    0.000000   0.000000   0.000004   0.001668   0.007496  -0.000263
     2  C   -0.000002  -0.000007   0.000003  -0.021225  -0.008671   0.002554
     3  O   -0.000006  -0.000012   0.001214   0.002753   0.000103  -0.000072
     4  N    0.000000  -0.000003  -0.000003   0.243821  -0.029294  -0.036351
     5  C   -0.000165   0.000783  -0.000098  -0.038964   0.003329  -0.000679
     6  C    0.003946  -0.004462  -0.000963   0.002910  -0.000112   0.000112
     7  O    0.000738   0.020096   0.000880  -0.000067   0.000002  -0.000011
     8  N   -0.042100  -0.034717  -0.047675  -0.000162   0.000004  -0.000004
     9  C   -0.002628   0.004752  -0.002208   0.000185  -0.000010  -0.000018
    10  C    0.378598   0.385036   0.388580   0.000003   0.000000   0.000000
    11  H    0.000000   0.000000   0.000000   0.000331   0.000020  -0.000011
    12  H    0.000000   0.000000   0.000000  -0.001368  -0.002438   0.000219
    13  H    0.000000   0.000000   0.000000  -0.003201   0.002159   0.000168
    14  H   -0.000016  -0.000065   0.000004   0.001679  -0.000009  -0.003576
    15  H    0.000005  -0.000016  -0.000001  -0.007264   0.000474   0.006386
    16  H    0.000132  -0.000237  -0.000156  -0.000923   0.000020   0.000064
    17  H    0.006207   0.000117  -0.001664   0.000005   0.000000   0.000000
    18  H   -0.001755  -0.000230   0.007204  -0.000022  -0.000001  -0.000001
    19  H    0.626402  -0.023344  -0.043951   0.000000   0.000000   0.000000
    20  H   -0.023344   0.530379  -0.029843   0.000000   0.000000   0.000000
    21  H   -0.043951  -0.029843   0.606025   0.000000   0.000000   0.000000
    22  C    0.000000   0.000000   0.000000   4.904580   0.376874   0.377101
    23  H    0.000000   0.000000   0.000000   0.376874   0.591239  -0.030460
    24  H    0.000000   0.000000   0.000000   0.377101  -0.030460   0.600884
    25  C    0.000000   0.000000   0.000000   0.361165  -0.042281  -0.048258
    26  H    0.000000   0.000000   0.000000  -0.039950  -0.008782   0.006709
    27  H    0.000000   0.000000   0.000000  -0.039668   0.006501  -0.007972
    28  O    0.000000   0.000000   0.000000  -0.040156   0.005500   0.006228
    29  C    0.000000   0.000000   0.000000   0.004532  -0.000086  -0.000108
    30  H    0.000000   0.000000   0.000000  -0.000256   0.000007   0.000009
    31  H    0.000000   0.000000   0.000000   0.000029   0.000047  -0.000058
    32  H    0.000000   0.000000   0.000000   0.000021  -0.000066   0.000049
             25         26         27         28         29         30
     1  C   -0.001816  -0.000872   0.000116   0.000009   0.000001   0.000000
     2  C   -0.000970   0.001787  -0.000200   0.000014  -0.000002   0.000000
     3  O   -0.000024  -0.000046   0.000001   0.000000   0.000000   0.000000
     4  N   -0.052546   0.002824   0.001227   0.002096  -0.000127   0.000001
     5  C   -0.002829   0.000044   0.000617  -0.000007   0.000000   0.000000
     6  C   -0.000077   0.000008  -0.000078   0.000000   0.000000   0.000000
     7  O    0.000000   0.000000   0.000000   0.000000   0.000000   0.000000
     8  N    0.000000  -0.000001   0.000012   0.000000   0.000000   0.000000
     9  C   -0.000025  -0.000047  -0.000253   0.000000   0.000000   0.000000
    10  C    0.000000   0.000000   0.000000   0.000000   0.000000   0.000000
    11  H    0.000020  -0.000042   0.000001   0.000000   0.000000   0.000000
    12  H   -0.000208   0.003989  -0.000107  -0.000073  -0.000004   0.000000
    13  H    0.000111   0.000061  -0.000007  -0.000005   0.000000   0.000000
    14  H    0.001188  -0.000231   0.002991  -0.000152   0.000004   0.000000
    15  H   -0.000551  -0.000002   0.000199   0.000007   0.000000   0.000000
    16  H    0.000526   0.000362   0.001476   0.000001  -0.000001   0.000000
    17  H   -0.000007   0.000000   0.000015   0.000000   0.000000   0.000000
    18  H    0.000010  -0.000001  -0.000019   0.000000   0.000000   0.000000
    19  H    0.000000   0.000000   0.000000   0.000000   0.000000   0.000000
    20  H    0.000000   0.000000   0.000000   0.000000   0.000000   0.000000
    21  H    0.000000   0.000000   0.000000   0.000000   0.000000   0.000000
    22  C    0.361165  -0.039950  -0.039668  -0.040156   0.004532  -0.000256
    23  H   -0.042281  -0.008782   0.006501   0.005500  -0.000086   0.000007
    24  H   -0.048258   0.006709  -0.007972   0.006228  -0.000108   0.000009
    25  C    4.782676   0.360774   0.363678   0.230779  -0.033791   0.005316
    26  H    0.360774   0.684778  -0.061531  -0.039024  -0.006068  -0.000111
    27  H    0.363678  -0.061531   0.683652  -0.038618  -0.005928  -0.000113
    28  O    0.230779  -0.039024  -0.038618   8.207176   0.256860  -0.032547
    29  C   -0.033791  -0.006068  -0.005928   0.256860   4.709538   0.395245
    30  H    0.005316  -0.000111  -0.000113  -0.032547   0.395245   0.579678
    31  H   -0.009124  -0.002651   0.013167  -0.037324   0.371257  -0.034273
    32  H   -0.009104   0.013129  -0.002716  -0.037337   0.371085  -0.034462
             31         32
     1  C    0.000000  -0.000001
     2  C    0.000000   0.000000
     3  O    0.000000   0.000000
     4  N    0.000011   0.000009
     5  C   -0.000002   0.000000
     6  C    0.000000   0.000000
     7  O    0.000000   0.000000
     8  N    0.000000   0.000000
     9  C    0.000000   0.000000
    10  C    0.000000   0.000000
    11  H    0.000000   0.000000
    12  H    0.000000   0.000006
    13  H    0.000000   0.000000
    14  H    0.000003   0.000000
    15  H    0.000000   0.000000
    16  H    0.000002   0.000000
    17  H    0.000000   0.000000
    18  H    0.000000   0.000000
    19  H    0.000000   0.000000
    20  H    0.000000   0.000000
    21  H    0.000000   0.000000
    22  C    0.000029   0.000021
    23  H    0.000047  -0.000066
    24  H   -0.000058   0.000049
    25  C   -0.009124  -0.009104
    26  H   -0.002651   0.013129
    27  H    0.013167  -0.002716
    28  O   -0.037324  -0.037337
    29  C    0.371257   0.371085
    30  H   -0.034273  -0.034462
    31  H    0.655348  -0.051918
    32  H   -0.051918   0.656498
 Mulliken atomic charges:
              1
     1  C   -0.406973
     2  C    0.575357
     3  O   -0.505279
     4  N   -0.449397
     5  C   -0.114684
     6  C    0.598896
     7  O   -0.518640
     8  N   -0.424169
     9  C   -0.168328
    10  C   -0.175037
    11  H    0.146828
    12  H    0.123424
    13  H    0.139400
    14  H    0.114876
    15  H    0.144337
    16  H    0.108168
    17  H    0.107483
    18  H    0.130222
    19  H    0.097940
    20  H    0.151772
    21  H    0.122650
    22  C   -0.084430
    23  H    0.128435
    24  H    0.127359
    25  C    0.095366
    26  H    0.084897
    27  H    0.083559
    28  O   -0.483430
    29  C   -0.062406
    30  H    0.121507
    31  H    0.095488
    32  H    0.094809
 Sum of Mulliken atomic charges =   0.00000
 Mulliken charges with hydrogens summed into heavy atoms:
              1
     1  C    0.002679
     2  C    0.575357
     3  O   -0.505279
     4  N   -0.449397
     5  C    0.144529
     6  C    0.598896
     7  O   -0.518640
     8  N   -0.424169
     9  C    0.177546
    10  C    0.197325
    22  C    0.171365
    25  C    0.263821
    28  O   -0.483430
    29  C    0.249397
 Sum of Mulliken charges with hydrogens summed into heavy atoms =   0.00000
 Electronic spatial extent (au):  <R**2>=           3756.6205
 Charge=              0.0000 electrons
 Dipole moment (field-independent basis, Debye):
    X=              4.6756    Y=             -1.9904    Z=             -2.8557  Tot=              5.8291
 Quadrupole moment (field-independent basis, Debye-Ang):
   XX=            -88.1672   YY=            -81.6249   ZZ=            -86.8362
   XY=              4.0610   XZ=              4.7328   YZ=              1.7501
 Traceless Quadrupole moment (field-independent basis, Debye-Ang):
   XX=             -2.6244   YY=              3.9178   ZZ=             -1.2934
   XY=              4.0610   XZ=              4.7328   YZ=              1.7501
 Octapole moment (field-independent basis, Debye-Ang**2):
  XXX=             29.4162  YYY=              7.5197  ZZZ=             -3.8412  XYY=             15.3884
  XXY=            -29.9838  XXZ=            -41.3746  XZZ=             12.2519  YZZ=             -0.2332
  YYZ=              0.0474  XYZ=             -0.6530
 Hexadecapole moment (field-independent basis, Debye-Ang**3):
 XXXX=          -3182.4341 YYYY=           -885.1678 ZZZZ=           -525.1548 XXXY=            -68.8769
 XXXZ=             11.1698 YYYX=              0.4428 YYYZ=              0.4593 ZZZX=             26.8090
 ZZZY=             -4.3634 XXYY=           -691.7526 XXZZ=           -692.8330 YYZZ=           -231.4576
 XXYZ=             21.0917 YYXZ=             -1.1809 ZZXY=              4.7204
 N-N= 9.764901339499D+02 E-N=-3.558649485108D+03  KE= 6.826131010710D+02
 Calling FoFJK, ICntrl=      2127 FMM=F ISym2X=0 I1Cent= 0 IOpClX= 0 NMat=1 NMatS=1 NMatT=0.
 ***** Axes restored to original set *****
 -------------------------------------------------------------------
 Center     Atomic                   Forces (Hartrees/Bohr)
 Number     Number              X              Y              Z
 -------------------------------------------------------------------
      1        6           0.000001008   -0.000004203   -0.000000577
      2        6          -0.000007142    0.000208390    0.000318570
      3        8           0.000001569   -0.000004069    0.000001544
      4        7           0.000017913   -0.000411727   -0.000604140
      5        6          -0.000080363    0.000401189    0.000540217
      6        6           0.000045697   -0.000230025   -0.000259244
      7        8          -0.000001754    0.000017685   -0.000007251
      8        7           0.000009852    0.000021871    0.000001590
      9        6           0.000003202   -0.000011912    0.000002601
     10        6           0.000007147    0.000000293    0.000005759
     11        1           0.000001351   -0.000000626   -0.000001413
     12        1           0.000000010   -0.000000979   -0.000000431
     13        1          -0.000000086    0.000000560   -0.000000897
     14        1           0.000004276    0.000001360   -0.000005506
     15        1          -0.000005754    0.000000168    0.000004048
     16        1          -0.000002815    0.000001209   -0.000000938
     17        1           0.000001237    0.000001277   -0.000001299
     18        1           0.000002185    0.000002587   -0.000002854
     19        1          -0.000000678    0.000001778   -0.000000467
     20        1          -0.000004683    0.000000206   -0.000002258
     21        1          -0.000002015    0.000000640   -0.000002214
     22        6           0.000009411   -0.000002313    0.000004038
     23        1           0.000001331    0.000001869   -0.000001963
     24        1          -0.000000062    0.000004098    0.000001069
     25        6          -0.000008896    0.000005265   -0.000000877
     26        1           0.000000299   -0.000000748   -0.000000561
     27        1           0.000002800   -0.000000050   -0.000000097
     28        8           0.000016067   -0.000012206   -0.000008646
     29        6          -0.000016496    0.000016221    0.000020033
     30        1           0.000002935   -0.000002676    0.000001610
     31        1           0.000000752   -0.000004015    0.000001513
     32        1           0.000001701   -0.000001119   -0.000000959
 -------------------------------------------------------------------
 Cartesian Forces:  Max     0.000604140 RMS     0.000114763

 GradGradGradGradGradGradGradGradGradGradGradGradGradGradGradGradGradGrad
 Berny optimization.
 Internal  Forces:  Max     0.000312869 RMS     0.000042625
 Search for a local minimum.
 Step number   1 out of a maximum of  155 on scan point     1 out of    37
 All quantities printed in internal units (Hartrees-Bohrs-Radians)
 Mixed Optimization -- En-DIIS/RFO-DIIS
 Second derivative matrix not updated -- first step.
 ITU=  0
     Eigenvalues ---    0.00354   0.00443   0.00737   0.00868   0.00935
     Eigenvalues ---    0.01000   0.01041   0.01079   0.01509   0.01548
     Eigenvalues ---    0.01552   0.01995   0.02024   0.02381   0.04111
     Eigenvalues ---    0.05356   0.05492   0.05879   0.06221   0.06851
     Eigenvalues ---    0.07349   0.07470   0.07478   0.07534   0.07666
     Eigenvalues ---    0.09473   0.10039   0.10513   0.10846   0.11094
     Eigenvalues ---    0.11748   0.12918   0.13609   0.16000   0.16000
     Eigenvalues ---    0.16000   0.16000   0.16000   0.16000   0.16000
     Eigenvalues ---    0.16000   0.16000   0.16000   0.16000   0.16000
     Eigenvalues ---    0.21923   0.21947   0.22138   0.22707   0.23654
     Eigenvalues ---    0.24604   0.24654   0.24846   0.25000   0.25000
     Eigenvalues ---    0.25000   0.25000   0.28303   0.29318   0.29947
     Eigenvalues ---    0.33297   0.33307   0.33575   0.33577   0.33826
     Eigenvalues ---    0.33927   0.33986   0.34180   0.34205   0.34220
     Eigenvalues ---    0.34262   0.34299   0.34391   0.34573   0.34748
     Eigenvalues ---    0.34828   0.34893   0.35005   0.35330   0.36677
     Eigenvalues ---    0.37313   0.37949   0.43409   0.43860   0.49635
     Eigenvalues ---    0.50045   0.92627   0.934651000.000001000.00000
     Eigenvalues --- 1000.000001000.000001000.000001000.000001000.00000
     Eigenvalues --- 1000.000001000.000001000.000001000.000001000.00000
     Eigenvalues --- 1000.000001000.000001000.000001000.000001000.00000
     Eigenvalues --- 1000.000001000.000001000.000001000.000001000.00000
     Eigenvalues --- 1000.000001000.000001000.000001000.000001000.00000
     Eigenvalues --- 1000.000001000.000001000.000001000.000001000.00000
     Eigenvalues --- 1000.000001000.000001000.000001000.000001000.00000
     Eigenvalues --- 1000.000001000.000001000.000001000.000001000.00000
     Eigenvalues --- 1000.000001000.000001000.000001000.000001000.00000
     Eigenvalues --- 1000.000001000.000001000.000001000.000001000.00000
     Eigenvalues --- 1000.000001000.000001000.000001000.000001000.00000
 RFO step:  Lambda=-7.53705211D-08 EMin= 3.53961534D-03
 Linear search not attempted -- first point.
 Iteration  1 RMS(Cart)=  0.00072137 RMS(Int)=  0.00000020
 Iteration  2 RMS(Cart)=  0.00000034 RMS(Int)=  0.00000004
 Iteration  1 RMS(Cart)=  0.00000000 RMS(Int)=  0.00000000
 Variable       Old X    -DE/DX   Delta X   Delta X   Delta X     New X
                                 (Linear)    (Quad)   (Total)
    R1        2.88070   0.00000   0.00000  -0.00001  -0.00001   2.88069
    R2        2.05849   0.00000   0.00000   0.00000   0.00000   2.05849
    R3        2.06675   0.00000   0.00000   0.00000   0.00000   2.06675
    R4        2.06985   0.00000   0.00000   0.00000   0.00000   2.06985
    R5        2.31745   0.00000   0.00000   0.00000   0.00000   2.31745
    R6        2.60236  -0.00001   0.00000  -0.00002  -0.00002   2.60233
    R7        2.78443   0.00000   0.00000  -0.00001  -0.00001   2.78442
    R8        2.76336   0.00001   0.00000   0.00003   0.00003   2.76339
    R9        2.91480  -0.00001   0.00000  -0.00002  -0.00002   2.91478
   R10        2.07355   0.00000   0.00000   0.00001   0.00001   2.07355
   R11        2.06828   0.00000   0.00000   0.00001   0.00001   2.06829
   R12        2.31376   0.00000   0.00000   0.00000   0.00000   2.31376
   R13        2.59820  -0.00002   0.00000  -0.00004  -0.00004   2.59816
   R14        2.74440   0.00000   0.00000   0.00001   0.00001   2.74441
   R15        2.75378   0.00000   0.00000   0.00000   0.00000   2.75377
   R16        2.05956   0.00000   0.00000  -0.00001  -0.00001   2.05955
   R17        2.07028   0.00000   0.00000   0.00000   0.00000   2.07027
   R18        2.07454   0.00000   0.00000   0.00001   0.00001   2.07455
   R19        2.06890   0.00000   0.00000   0.00000   0.00000   2.06890
   R20        2.05667   0.00000   0.00000   0.00000   0.00000   2.05668
   R21        2.07624   0.00000   0.00000   0.00000   0.00000   2.07624
   R22        2.06085   0.00000   0.00000   0.00001   0.00001   2.06086
   R23        2.06961   0.00000   0.00000   0.00000   0.00000   2.06961
   R24        2.89344   0.00000   0.00000   0.00000   0.00000   2.89344
   R25        2.08515   0.00000   0.00000   0.00000   0.00000   2.08515
   R26        2.08532   0.00000   0.00000   0.00000   0.00000   2.08532
   R27        2.66622   0.00001   0.00000   0.00001   0.00001   2.66624
   R28        2.67168  -0.00002   0.00000  -0.00005  -0.00005   2.67163
   R29        2.06373   0.00000   0.00000   0.00001   0.00001   2.06374
   R30        2.08051   0.00000   0.00000   0.00001   0.00001   2.08051
   R31        2.08053   0.00000   0.00000   0.00001   0.00001   2.08054
    A1        1.86592   0.00000   0.00000   0.00000   0.00000   1.86592
    A2        1.97351   0.00000   0.00000  -0.00001  -0.00001   1.97350
    A3        1.93825   0.00000   0.00000   0.00001   0.00001   1.93826
    A4        1.90758   0.00000   0.00000  -0.00001  -0.00001   1.90757
    A5        1.89458   0.00000   0.00000   0.00000   0.00000   1.89458
    A6        1.88265   0.00000   0.00000   0.00001   0.00001   1.88266
    A7        2.09907   0.00001   0.00000   0.00002   0.00002   2.09909
    A8        2.05121   0.00000   0.00000   0.00000   0.00000   2.05121
    A9        2.13290  -0.00001   0.00000  -0.00002  -0.00002   2.13288
   A10        2.13071   0.00000   0.00000  -0.00005  -0.00005   2.13066
   A11        2.15342  -0.00004   0.00000  -0.00004  -0.00004   2.15338
   A12        1.99033   0.00003   0.00000   0.00010   0.00010   1.99043
   A13        2.08167  -0.00004   0.00000  -0.00019  -0.00019   2.08148
   A14        1.88963   0.00000   0.00000   0.00000   0.00000   1.88963
   A15        1.89275   0.00003   0.00000   0.00008   0.00008   1.89282
   A16        1.90206  -0.00011   0.00000   0.00006   0.00006   1.90213
   A17        1.81100   0.00014   0.00000   0.00002   0.00002   1.81101
   A18        1.87676   0.00000   0.00000   0.00006   0.00006   1.87682
   A19        2.06755   0.00000   0.00000   0.00006   0.00006   2.06762
   A20        2.06014   0.00000   0.00000   0.00008   0.00008   2.06021
   A21        2.14057   0.00000   0.00000   0.00007   0.00007   2.14064
   A22        2.15211   0.00000   0.00000   0.00003   0.00003   2.15214
   A23        2.04265  -0.00001   0.00000  -0.00003  -0.00003   2.04262
   A24        2.00651   0.00001   0.00000   0.00004   0.00004   2.00654
   A25        1.93857   0.00000   0.00000  -0.00001  -0.00001   1.93856
   A26        1.91152   0.00000   0.00000   0.00002   0.00002   1.91154
   A27        1.94249   0.00000   0.00000   0.00000   0.00000   1.94249
   A28        1.88593   0.00000   0.00000   0.00001   0.00001   1.88593
   A29        1.88477   0.00000   0.00000  -0.00002  -0.00002   1.88475
   A30        1.89919   0.00000   0.00000   0.00000   0.00000   1.89919
   A31        1.91002   0.00000   0.00000   0.00000   0.00000   1.91002
   A32        1.89813   0.00001   0.00000   0.00003   0.00003   1.89817
   A33        1.94014   0.00000   0.00000   0.00001   0.00001   1.94015
   A34        1.91988   0.00000   0.00000  -0.00002  -0.00002   1.91986
   A35        1.89933   0.00000   0.00000  -0.00001  -0.00001   1.89932
   A36        1.89635   0.00000   0.00000  -0.00002  -0.00002   1.89633
   A37        1.93195   0.00000   0.00000  -0.00003  -0.00003   1.93192
   A38        1.89851   0.00000   0.00000   0.00003   0.00003   1.89854
   A39        1.97236   0.00000   0.00000  -0.00001  -0.00001   1.97235
   A40        1.85884   0.00000   0.00000  -0.00001  -0.00001   1.85883
   A41        1.90219   0.00000   0.00000  -0.00004  -0.00004   1.90215
   A42        1.89624   0.00000   0.00000   0.00005   0.00005   1.89628
   A43        1.92289   0.00000   0.00000   0.00001   0.00001   1.92290
   A44        1.92715   0.00000   0.00000   0.00002   0.00002   1.92717
   A45        1.87113   0.00000   0.00000   0.00000   0.00000   1.87113
   A46        1.86808   0.00000   0.00000  -0.00001  -0.00001   1.86807
   A47        1.93942   0.00000   0.00000   0.00000   0.00000   1.93942
   A48        1.93593   0.00000   0.00000  -0.00002  -0.00002   1.93591
   A49        1.97420   0.00000   0.00000   0.00000   0.00000   1.97420
   A50        1.87131   0.00000   0.00000   0.00003   0.00003   1.87133
   A51        1.94994   0.00000   0.00000   0.00001   0.00001   1.94995
   A52        1.95044   0.00000   0.00000   0.00001   0.00001   1.95045
   A53        1.90063   0.00000   0.00000  -0.00002  -0.00002   1.90061
   A54        1.90067   0.00000   0.00000  -0.00001  -0.00001   1.90066
   A55        1.88986   0.00000   0.00000  -0.00001  -0.00001   1.88984
    D1       -0.14175   0.00000   0.00000   0.00004   0.00004  -0.14170
    D2        2.99595   0.00000   0.00000  -0.00014  -0.00014   2.99582
    D3       -2.24183   0.00000   0.00000   0.00005   0.00005  -2.24178
    D4        0.89587   0.00000   0.00000  -0.00013  -0.00013   0.89574
    D5        1.92213   0.00000   0.00000   0.00005   0.00005   1.92218
    D6       -1.22335   0.00000   0.00000  -0.00013  -0.00013  -1.22349
    D7        3.02902  -0.00005   0.00000   0.00025   0.00025   3.02927
    D8        0.03752   0.00005   0.00000   0.00016   0.00016   0.03768
    D9       -0.11654  -0.00005   0.00000   0.00006   0.00006  -0.11648
   D10       -3.10805   0.00005   0.00000  -0.00002  -0.00002  -3.10807
   D11        0.15132   0.00031   0.00000   0.00000   0.00000   0.15132
   D12        2.33797   0.00012   0.00000  -0.00007  -0.00007   2.33791
   D13       -1.91382   0.00013   0.00000   0.00005   0.00005  -1.91377
   D14       -3.12742   0.00021   0.00000   0.00007   0.00007  -3.12735
   D15       -0.94076   0.00002   0.00000   0.00000   0.00000  -0.94076
   D16        1.09063   0.00003   0.00000   0.00012   0.00012   1.09075
   D17        0.42133  -0.00005   0.00000   0.00002   0.00002   0.42136
   D18        2.45793  -0.00005   0.00000   0.00002   0.00002   2.45796
   D19       -1.71782  -0.00005   0.00000   0.00010   0.00010  -1.71772
   D20       -2.58109   0.00005   0.00000  -0.00005  -0.00005  -2.58113
   D21       -0.54448   0.00005   0.00000  -0.00005  -0.00005  -0.54453
   D22        1.56295   0.00005   0.00000   0.00003   0.00003   1.56298
   D23       -1.90533  -0.00008   0.00000   0.00127   0.00127  -1.90406
   D24        1.41604  -0.00009   0.00000   0.00000   0.00000   1.41604
   D25        2.19716   0.00006   0.00000   0.00137   0.00137   2.19853
   D26       -0.76466   0.00005   0.00000   0.00010   0.00010  -0.76456
   D27        0.20151   0.00005   0.00000   0.00126   0.00126   0.20278
   D28       -2.76031   0.00003   0.00000  -0.00001  -0.00001  -2.76031
   D29       -0.43225   0.00001   0.00000   0.00079   0.00079  -0.43145
   D30       -3.12802   0.00001   0.00000   0.00070   0.00070  -3.12732
   D31        2.89713   0.00000   0.00000  -0.00053  -0.00053   2.89660
   D32        0.20136  -0.00001   0.00000  -0.00063  -0.00063   0.20073
   D33        0.51577   0.00000   0.00000  -0.00001  -0.00001   0.51575
   D34        2.59754   0.00000   0.00000   0.00000   0.00000   2.59754
   D35       -1.58490   0.00000   0.00000   0.00001   0.00001  -1.58489
   D36       -3.06331   0.00000   0.00000   0.00007   0.00007  -3.06324
   D37       -0.98154   0.00000   0.00000   0.00008   0.00008  -0.98146
   D38        1.11920   0.00000   0.00000   0.00009   0.00009   1.11929
   D39       -2.60883   0.00000   0.00000   0.00002   0.00002  -2.60881
   D40       -0.51113   0.00000   0.00000   0.00001   0.00001  -0.51112
   D41        1.57592   0.00000   0.00000   0.00002   0.00002   1.57595
   D42        0.94156   0.00000   0.00000  -0.00007  -0.00007   0.94149
   D43        3.03926   0.00000   0.00000  -0.00008  -0.00008   3.03918
   D44       -1.15687   0.00000   0.00000  -0.00007  -0.00007  -1.15693
   D45        1.07876   0.00000   0.00000  -0.00006  -0.00006   1.07870
   D46       -0.98104   0.00000   0.00000  -0.00007  -0.00007  -0.98111
   D47       -3.09186   0.00000   0.00000  -0.00005  -0.00005  -3.09191
   D48       -1.07690   0.00000   0.00000   0.00001   0.00001  -1.07689
   D49       -3.13670   0.00000   0.00000   0.00000   0.00000  -3.13670
   D50        1.03567   0.00000   0.00000   0.00001   0.00001   1.03568
   D51       -3.09570   0.00000   0.00000   0.00001   0.00001  -3.09569
   D52        1.12768   0.00000   0.00000   0.00000   0.00000   1.12768
   D53       -0.98314   0.00000   0.00000   0.00002   0.00002  -0.98312
   D54        3.13659   0.00000   0.00000  -0.00006  -0.00006   3.13653
   D55       -1.04450   0.00000   0.00000  -0.00005  -0.00005  -1.04455
   D56        1.03134   0.00000   0.00000  -0.00007  -0.00007   1.03126
   D57        3.14050   0.00000   0.00000  -0.00001  -0.00001   3.14050
   D58       -1.06156   0.00000   0.00000  -0.00001  -0.00001  -1.06156
   D59        1.05903   0.00000   0.00000  -0.00001  -0.00001   1.05902
         Item               Value     Threshold  Converged?
 Maximum Force            0.000039     0.000450     YES
 RMS     Force            0.000006     0.000300     YES
 Maximum Displacement     0.003173     0.001800     NO 
 RMS     Displacement     0.000721     0.001200     YES
 Predicted change in Energy=-3.769852D-08
 GradGradGradGradGradGradGradGradGradGradGradGradGradGradGradGradGradGrad

                          Input orientation:                          
 ---------------------------------------------------------------------
 Center     Atomic      Atomic             Coordinates (Angstroms)
 Number     Number       Type             X           Y           Z
 ---------------------------------------------------------------------
      1          6           0        0.797126    2.686835   -0.731876
      2          6           0       -0.179473    1.622790   -0.244178
      3          8           0       -1.375841    1.720068   -0.495483
      4          7           0        0.336293    0.566358    0.472990
      5          6           0       -0.527673   -0.442901    1.110185
      6          6           0       -2.040622   -0.437884    0.810067
      7          8           0       -2.809952   -0.085508    1.694993
      8          7           0       -2.470459   -1.028349   -0.354796
      9          6           0       -1.628502   -1.184180   -1.527798
     10          6           0       -3.901990   -0.994959   -0.625230
     11          1           0        0.240499    3.347504   -1.395407
     12          1           0        1.651818    2.269127   -1.271464
     13          1           0        1.184336    3.278564    0.104573
     14          1           0       -0.121813   -1.436506    0.882059
     15          1           0       -0.476953   -0.307115    2.195036
     16          1           0       -0.579728   -1.280313   -1.247374
     17          1           0       -1.919602   -2.090786   -2.069590
     18          1           0       -1.721478   -0.323234   -2.202560
     19          1           0       -4.184570   -1.881629   -1.201931
     20          1           0       -4.436949   -0.981251    0.322467
     21          1           0       -4.176839   -0.097847   -1.196886
     22          6           0        1.751191    0.445306    0.821991
     23          1           0        2.230009    1.425042    0.835140
     24          1           0        1.830613    0.046543    1.838907
     25          6           0        2.524936   -0.474573   -0.126451
     26          1           0        2.500885   -0.070034   -1.152752
     27          1           0        2.056580   -1.473137   -0.161562
     28          8           0        3.847861   -0.555358    0.357303
     29          6           0        4.676844   -1.387054   -0.429973
     30          1           0        5.669083   -1.379364    0.026152
     31          1           0        4.305459   -2.423097   -0.458314
     32          1           0        4.757318   -1.020615   -1.465055
 ---------------------------------------------------------------------
                    Distance matrix (angstroms):
                    1          2          3          4          5
     1  C    0.000000
     2  C    1.524397   0.000000
     3  O    2.390043   1.226342   0.000000
     4  N    2.482033   1.377096   2.280436   0.000000
     5  C    3.865686   2.494519   2.824180   1.473452   0.000000
     6  C    4.493803   2.970133   2.608285   2.602278   1.542436
     7  O    5.156218   3.687558   3.180402   3.437597   2.382965
     8  N    4.962045   3.505623   2.961718   3.332593   2.502665
     9  C    4.637016   3.409758   3.092600   3.305747   2.953011
    10  C    5.970651   4.566722   3.710746   4.648317   3.834377
    11  H    1.089307   2.115736   2.463933   3.351843   4.608172
    12  H    1.093679   2.196974   3.173379   2.770045   4.216341
    13  H    1.095319   2.173290   3.056711   2.865478   4.218001
    14  H    4.522297   3.260526   3.665265   2.094914   1.097276
    15  H    4.376509   3.124548   3.486598   2.095177   1.094492
    16  H    4.230807   3.097518   3.193967   2.684948   2.502410
    17  H    5.656479   4.488968   4.158859   4.314417   3.842391
    18  H    4.191275   3.162285   2.684895   3.490611   3.523318
    19  H    6.775626   5.407314   4.621715   5.407052   4.559464
    20  H    6.477810   5.022770   4.163717   5.020118   4.024022
    21  H    5.719353   4.455017   3.412091   4.857779   4.331056
    22  C    2.889497   2.500130   3.624788   1.462324   2.462761
    23  H    2.469983   2.647572   3.854836   2.110605   3.342106
    24  H    3.827292   3.296096   4.304813   2.090199   2.516368
[...]
   D17        0.46814   0.00108   0.00797   0.00384   0.01181   0.47994
   D18        2.51585   0.00116   0.00825   0.00460   0.01284   2.52869
   D19       -1.66401   0.00114   0.00794   0.00338   0.01131  -1.65269
   D20       -2.41462  -0.00115   0.00451   0.00565   0.01016  -2.40446
   D21       -0.36691  -0.00107   0.00479   0.00641   0.01120  -0.35571
   D22        1.73642  -0.00110   0.00448   0.00519   0.00967   1.74609
   D23       -0.67700  -0.00230   0.00443   0.00173   0.00617  -0.67084
   D24        2.81230  -0.00685   0.00000   0.00000   0.00000   2.81230
   D25       -2.92087  -0.00081   0.00794   0.00348   0.01143  -2.90945
   D26        0.56843  -0.00536   0.00352   0.00174   0.00526   0.57369
   D27        1.41098  -0.00075   0.00799   0.00211   0.01011   1.42109
   D28       -1.38290  -0.00530   0.00357   0.00037   0.00394  -1.37896
   D29       -0.78095   0.00226   0.00603   0.01192   0.01796  -0.76299
   D30        2.83930   0.00222   0.00399   0.00430   0.00828   2.84758
   D31        2.70257  -0.00194   0.00157   0.00979   0.01137   2.71393
   D32        0.03963  -0.00198  -0.00048   0.00217   0.00169   0.04132
   D33        0.32914   0.00002  -0.00007   0.00062   0.00055   0.32969
   D34        2.43110  -0.00001  -0.00067   0.00012  -0.00056   2.43054
   D35       -1.76734   0.00000  -0.00071  -0.00027  -0.00099  -1.76832
   D36        3.00296   0.00006   0.00187   0.00822   0.01009   3.01305
   D37       -1.17827   0.00003   0.00126   0.00771   0.00898  -1.16928
   D38        0.90648   0.00004   0.00122   0.00733   0.00856   0.91504
   D39       -2.68949   0.00002   0.00112   0.00664   0.00775  -2.68174
   D40       -0.59208   0.00001   0.00091   0.00685   0.00775  -0.58433
   D41        1.49961   0.00004   0.00106   0.00706   0.00811   1.50772
   D42        0.87418  -0.00004  -0.00100  -0.00089  -0.00188   0.87230
   D43        2.97159  -0.00004  -0.00121  -0.00068  -0.00188   2.96971
   D44       -1.21991  -0.00002  -0.00106  -0.00046  -0.00152  -1.22143
   D45        1.08373   0.00005   0.00081   0.00161   0.00241   1.08614
   D46       -0.96794   0.00000   0.00090   0.00110   0.00200  -0.96593
   D47       -3.08386   0.00002   0.00108   0.00097   0.00205  -3.08181
   D48       -1.07463   0.00003   0.00068   0.00099   0.00167  -1.07297
   D49       -3.12630  -0.00001   0.00077   0.00049   0.00126  -3.12504
   D50        1.04097   0.00000   0.00095   0.00035   0.00130   1.04227
   D51       -3.08433   0.00000   0.00046   0.00028   0.00074  -3.08359
   D52        1.14720  -0.00005   0.00055  -0.00022   0.00033   1.14752
   D53       -0.96872  -0.00003   0.00073  -0.00036   0.00037  -0.96835
   D54       -3.12399   0.00002   0.00184   0.00162   0.00346  -3.12053
   D55       -1.02219  -0.00003   0.00229   0.00122   0.00351  -1.01868
   D56        1.05196  -0.00001   0.00195   0.00150   0.00345   1.05541
   D57       -3.13588  -0.00003  -0.00054  -0.00024  -0.00078  -3.13666
   D58       -1.05407  -0.00005  -0.00052  -0.00055  -0.00107  -1.05513
   D59        1.06506  -0.00002  -0.00070  -0.00014  -0.00083   1.06423
         Item               Value     Threshold  Converged?
 Maximum Force            0.000330     0.000450     YES
 RMS     Force            0.000089     0.000300     YES
 Maximum Displacement     0.064925     0.001800     NO 
 RMS     Displacement     0.014886     0.001200     NO 
 Predicted change in Energy=-8.198072D-06
 GradGradGradGradGradGradGradGradGradGradGradGradGradGradGradGradGradGrad

                          Input orientation:                          
 ---------------------------------------------------------------------
 Center     Atomic      Atomic             Coordinates (Angstroms)
 Number     Number       Type             X           Y           Z
 ---------------------------------------------------------------------
      1          6           0        1.255468    3.106280    0.219261
      2          6           0        0.286976    2.063580   -0.337475
      3          8           0       -0.567259    2.393637   -1.138362
      4          7           0        0.481506    0.733653    0.052970
      5          6           0       -0.565799   -0.284419    0.216939
      6          6           0       -2.020506   -0.034372   -0.222040
      7          8           0       -2.565661    1.045556   -0.074661
      8          7           0       -2.777700   -1.190953   -0.386989
      9          6           0       -2.329170   -2.410087   -1.051614
     10          6           0       -4.226347   -1.009706   -0.424167
     11          1           0        0.905717    4.073039   -0.141125
     12          1           0        2.280792    2.955654   -0.133982
     13          1           0        1.274152    3.113507    1.314037
     14          1           0       -0.183270   -1.218043   -0.201759
     15          1           0       -0.684948   -0.473561    1.295525
     16          1           0       -1.244384   -2.457873   -1.122898
     17          1           0       -2.673897   -3.292007   -0.499059
     18          1           0       -2.733228   -2.471567   -2.072070
     19          1           0       -4.705169   -1.934529   -0.087493
     20          1           0       -4.501802   -0.185982    0.231626
     21          1           0       -4.584964   -0.778077   -1.436494
     22          6           0        1.732473    0.318977    0.695593
     23          1           0        2.200193    1.144499    1.232975
     24          1           0        1.524900   -0.453486    1.443672
     25          6           0        2.731199   -0.241650   -0.319126
     26          1           0        3.002299    0.538451   -1.050344
     27          1           0        2.273509   -1.069233   -0.888275
     28          8           0        3.865013   -0.685132    0.396981
     29          6           0        4.878734   -1.203922   -0.439176
     30          1           0        5.701312   -1.520911    0.205911
     31          1           0        4.526333   -2.071659   -1.018599
     32          1           0        5.251934   -0.447221   -1.146601
 ---------------------------------------------------------------------
                    Distance matrix (angstroms):
                    1          2          3          4          5
     1  C    0.000000
     2  C    1.528121   0.000000
     3  O    2.381876   1.216583   0.000000
     4  N    2.501206   1.399641   2.296676   0.000000
     5  C    3.848878   2.558848   3.001471   1.469764   0.000000
     6  C    4.559655   3.120770   2.974357   2.631645   1.539935
     7  O    4.351322   3.040228   2.634842   3.065746   2.419362
     8  N    5.924542   4.470647   4.277838   3.810524   2.465571
     9  C    6.700378   5.231435   5.117384   4.359255   3.039271
    10  C    6.885176   5.461016   5.047945   5.042900   3.786380
    11  H    1.089416   2.111710   2.446330   3.371813   4.613135
    12  H    1.094878   2.193742   3.071813   2.865252   4.327158
    13  H    1.094959   2.191884   3.150122   2.807540   4.016833
    14  H    4.576789   3.317921   3.750853   2.077482   1.092377
    15  H    4.211748   3.169923   3.762775   2.088522   1.101508
    16  H    6.245835   4.837922   4.898560   3.814079   2.641882
    17  H    7.542810   6.121699   6.096981   5.144632   3.741967
    18  H    7.229957   5.718217   5.406795   5.012359   3.836785
    19  H    7.812366   6.400694   6.079445   5.834426   4.466534
    20  H    6.632141   5.321353   4.900196   5.070601   3.937261
    21  H    7.206969   5.746186   5.127436   5.492990   4.373926
    22  C    2.867662   2.490046   3.599496   1.466234   2.423892
    23  H    2.401813   2.640345   3.852580   2.124875   3.274882
    24  H    3.774084   3.322734   4.376087   2.105238   2.429914
    25  C    3.698145   3.359858   4.300664   2.480079   3.340567
    26  H    3.355154   3.194867   4.023830   2.758588   3.874848
    27  H    4.438238   3.750228   4.485976   2.710649   3.146284
    28  O    4.606095   4.571345   5.610805   3.685027   4.452537
    29  C    5.669166   5.636590   6.564307   4.830323   5.560477
    30  H    6.416900   6.516047   7.511706   5.687955   6.387935
    31  H    6.248352   5.961231   6.774798   5.037724   5.536297
    32  H    5.519483   5.622242   6.475611   5.058697   5.977605
                    6          7          8          9         10
     6  C    0.000000
     7  O    1.218671   0.000000
     8  N    1.392204   2.268145   0.000000
     9  C    2.535248   3.598865   1.459175   0.000000
    10  C    2.420303   2.665359   1.460415   2.440089   0.000000
    11  H    5.043824   4.606575   6.429434   7.302356   7.228589
    12  H    5.239196   5.209616   6.545739   7.133370   7.625690
    13  H    4.808685   4.577015   6.151372   7.006449   7.090680
    14  H    2.185617   3.288741   2.601174   2.597712   4.054546
    15  H    2.068720   2.778885   2.779409   3.458708   3.973197
    16  H    2.699494   3.888263   2.120780   1.088176   3.387849
    17  H    3.334043   4.359619   2.106599   1.096329   2.761269
    18  H    3.141735   4.048194   2.116943   1.099260   2.661208
    19  H    3.291826   3.668592   2.087520   2.607883   1.094494
    20  H    2.526980   2.314981   2.089301   3.363581   1.088330
    21  H    2.933332   3.042665   2.130289   2.810728   1.098665
    22  C    3.879660   4.426643   4.877862   5.195909   6.206997
    23  H    4.617478   4.942981   5.732193   6.194317   6.977617
    24  H    3.939563   4.613583   4.733661   4.990851   6.072483
    25  C    4.757214   5.456499   5.590506   5.553917   7.000600
    26  H    5.122771   5.675499   6.069536   6.092491   7.419045
    27  H    4.466920   5.343395   5.077482   4.796794   6.516677
    28  O    5.953655   6.676174   6.707914   6.591040   8.139395
    29  C    7.001036   7.785373   7.656623   7.333744   9.107165
    30  H    7.875240   8.660734   8.506118   8.176836   9.960760
    31  H    6.902618   7.804128   7.384001   6.863931   8.836883
    32  H    7.342590   8.030705   8.099702   7.831667   9.522401
                   11         12         13         14         15
    11  H    0.000000
    12  H    1.771844   0.000000
    13  H    1.781556   1.770593   0.000000
    14  H    5.402325   4.847261   4.814981   0.000000
    15  H    5.026505   4.753800   4.087233   1.745793   0.000000
    16  H    6.945475   6.535372   6.581941   1.873937   3.177929
    17  H    8.196686   7.982198   7.739833   3.254679   3.888456
    18  H    7.733197   7.638802   7.662758   3.401716   4.419069
    19  H    8.220450   8.527585   7.949795   4.579735   4.495480
    20  H    6.893436   7.483790   6.739427   4.461242   3.972776
    21  H    7.440355   7.923123   7.552422   4.592717   4.771454
    22  C    3.934031   2.817962   2.898608   2.614908   2.613803
    23  H    3.484274   2.270539   2.177410   3.649789   3.308485
    24  H    4.835742   3.831788   3.578145   2.491954   2.214900
    25  C    4.688348   3.234176   4.005906   3.075915   3.785623
    26  H    4.208996   2.683870   3.899705   3.735401   4.485874
    27  H    5.373272   4.094963   4.831584   2.555233   3.725088
    28  O    5.629137   4.005870   4.688626   4.126874   4.642661
    29  C    6.612111   4.913707   5.891262   5.067589   5.873430
    30  H    7.376343   5.644034   6.504270   5.906457   6.562661
    31  H    7.185828   5.576636   6.550100   4.855538   5.921701
    32  H    6.350853   4.629540   5.878458   5.570309   6.419598
                   16         17         18         19         20
    16  H    0.000000
    17  H    1.768746   0.000000
    18  H    1.765721   1.775107   0.000000
    19  H    3.650067   2.477538   2.848772   0.000000
    20  H    4.196070   3.677299   3.695777   1.789026   0.000000
    21  H    3.752271   3.294056   2.588589   1.780908   1.772037
    22  C    4.458642   5.820868   5.948914   6.865476   6.271877
    23  H    5.512924   6.814638   6.952546   7.675160   6.905767
    24  H    4.274784   5.427827   5.879179   6.584202   6.153190
    25  C    4.622008   6.209036   6.156728   7.630142   7.254152
    26  H    5.197840   6.869900   6.557469   8.151551   7.647207
    27  H    3.789319   5.437743   5.332479   7.077566   6.923811
    28  O    5.617703   7.096199   7.268036   8.674315   8.383322
    29  C    6.287482   7.836193   7.887663   9.618142   9.459420
    30  H    7.133464   8.589406   8.788310  10.418829  10.290103
    31  H    5.784566   7.321372   7.346492   9.279353   9.307312
    32  H    6.800399   8.445763   8.289588  10.123126   9.854091
                   21         22         23         24         25
    21  H    0.000000
    22  C    6.757169   0.000000
    23  H    7.540605   1.090425   0.000000
    24  H    6.762481   1.095175   1.747561   0.000000
    25  C    7.420411   1.530167   2.147648   2.146506   0.000000
    26  H    7.710312   2.170006   2.494838   3.063783   1.103056
    27  H    6.886507   2.174508   3.066869   2.525379   1.103769
    28  O    8.647103   2.375948   2.611142   2.573976   1.412452
    29  C    9.525627   3.675035   3.935194   3.918734   2.356329
    30  H   10.443024   4.401892   4.518529   4.484848   3.276239
    31  H    9.212151   4.057000   4.563352   4.205932   2.657198
    32  H    9.846728   4.045657   4.184385   4.538759   2.661029
                   26         27         28         29         30
    26  H    0.000000
    27  H    1.772583   0.000000
    28  O    2.082350   2.081418   0.000000
    29  C    2.632565   2.647078   1.412774   0.000000
    30  H    3.619920   3.626442   2.026580   1.092361   0.000000
    31  H    3.022641   2.469221   2.088939   1.101310   1.784186
    32  H    2.457981   3.053628   2.088730   1.101056   1.784388
                   31         32
    31  H    0.000000
    32  H    1.783726   0.000000
 Stoichiometry    C9H18N2O3
 Framework group  C1[X(C9H18N2O3)]
 Deg. of freedom    90
 Full point group                 C1      NOp   1
 Largest Abelian subgroup         C1      NOp   1
 Largest concise Abelian subgroup C1      NOp   1
                         Standard orientation:                         
 ---------------------------------------------------------------------
 Center     Atomic      Atomic             Coordinates (Angstroms)
 Number     Number       Type             X           Y           Z
 ---------------------------------------------------------------------
      1          6           0        1.494320    2.863995    0.132276
      2          6           0        0.393184    1.890130   -0.285146
      3          8           0       -0.477782    2.250600   -1.054271
      4          7           0        0.483797    0.576740    0.190027
      5          6           0       -0.643811   -0.315966    0.492985
      6          6           0       -2.093964    0.050698    0.126909
      7          8           0       -2.520163    1.188007    0.227122
      8          7           0       -2.969526   -1.031244    0.094907
      9          6           0       -2.688245   -2.331819   -0.503905
     10          6           0       -4.392817   -0.706336    0.133491
     11          1           0        1.216341    3.834778   -0.276545
     12          1           0        2.473516    2.586212   -0.271174
     13          1           0        1.588595    2.943228    1.220288
     14          1           0       -0.383454   -1.309835    0.121869
     15          1           0       -0.706591   -0.418686    1.587894
     16          1           0       -1.620689   -2.494539   -0.637974
     17          1           0       -3.078398   -3.134690    0.132581
     18          1           0       -3.165339   -2.420631   -1.490245
     19          1           0       -4.935077   -1.552717    0.566514
     20          1           0       -4.541297    0.183572    0.742160
     21          1           0       -4.795741   -0.508313   -0.869258
     22          6           0        1.729608    0.081188    0.783514
     23          1           0        2.311087    0.889194    1.228525
     24          1           0        1.499674   -0.613805    1.598083
     25          6           0        2.597206   -0.645502   -0.246343
     26          1           0        2.892113    0.051741   -1.048600
     27          1           0        2.023309   -1.458722   -0.723438
     28          8           0        3.728930   -1.152748    0.429617
     29          6           0        4.627720   -1.827379   -0.426526
     30          1           0        5.457848   -2.182181    0.188500
     31          1           0        4.153756   -2.691867   -0.917343
     32          1           0        5.023358   -1.162150   -1.209640
 ---------------------------------------------------------------------
 Rotational constants (GHZ):      0.9481815      0.3405548      0.2653967
 Standard basis: 6-31G(d,p) (6D, 7F)
 There are   300 symmetry adapted basis functions of A   symmetry.
 Integral buffers will be    131072 words long.
 Raffenetti 2 integral format.
 Two-electron integral symmetry is turned on.
   300 basis functions,   518 primitive gaussians,   300 cartesian basis functions
    55 alpha electrons       55 beta electrons
       nuclear repulsion energy       949.7131371889 Hartrees.
 NAtoms=   32 NActive=   32 NUniq=   32 SFac= 1.00D+00 NAtFMM=   60 NAOKFM=F Big=F
 One-electron integrals computed using PRISM.
 NBasis=   300 RedAO= T  NBF=   300
 NBsUse=   300 1.00D-06 NBFU=   300
 Initial guess read from the read-write file.
 B after Tr=     0.000000    0.000000    0.000000
         Rot=    1.000000    0.000000    0.000000    0.000000 Ang=   0.00 deg.
 Initial guess orbital symmetries:
       Occupied  (A) (A) (A) (A) (A) (A) (A) (A) (A) (A) (A) (A)
                 (A) (A) (A) (A) (A) (A) (A) (A) (A) (A) (A) (A)
                 (A) (A) (A) (A) (A) (A) (A) (A) (A) (A) (A) (A)
                 (A) (A) (A) (A) (A) (A) (A) (A) (A) (A) (A) (A)
                 (A) (A) (A) (A) (A) (A) (A)
       Virtual   (A) (A) (A) (A) (A) (A) (A) (A) (A) (A) (A) (A)
                 (A) (A) (A) (A) (A) (A) (A) (A) (A) (A) (A) (A)
                 (A) (A) (A) (A) (A) (A) (A) (A) (A) (A) (A) (A)
                 (A) (A) (A) (A) (A) (A) (A) (A) (A) (A) (A) (A)
                 (A) (A) (A) (A) (A) (A) (A) (A) (A) (A) (A) (A)
                 (A) (A) (A) (A) (A) (A) (A) (A) (A) (A) (A) (A)
                 (A) (A) (A) (A) (A) (A) (A) (A) (A) (A) (A) (A)
                 (A) (A) (A) (A) (A) (A) (A) (A) (A) (A) (A) (A)
                 (A) (A) (A) (A) (A) (A) (A) (A) (A) (A) (A) (A)
                 (A) (A) (A) (A) (A) (A) (A) (A) (A) (A) (A) (A)
                 (A) (A) (A) (A) (A) (A) (A) (A) (A) (A) (A) (A)
                 (A) (A) (A) (A) (A) (A) (A) (A) (A) (A) (A) (A)
                 (A) (A) (A) (A) (A) (A) (A) (A) (A) (A) (A) (A)
                 (A) (A) (A) (A) (A) (A) (A) (A) (A) (A) (A) (A)
                 (A) (A) (A) (A) (A) (A) (A) (A) (A) (A) (A) (A)
                 (A) (A) (A) (A) (A) (A) (A) (A) (A) (A) (A) (A)
                 (A) (A) (A) (A) (A) (A) (A) (A) (A) (A) (A) (A)
                 (A) (A) (A) (A) (A) (A) (A) (A) (A) (A) (A) (A)
                 (A) (A) (A) (A) (A) (A) (A) (A) (A) (A) (A) (A)
                 (A) (A) (A) (A) (A) (A) (A) (A) (A) (A) (A) (A)
                 (A) (A) (A) (A) (A)
 Harris functional with IExCor=  402 diagonalized for initial guess.
 ExpMin= 1.61D-01 ExpMax= 5.48D+03 ExpMxC= 8.25D+02 IAcc=1 IRadAn=         1 AccDes= 0.00D+00
 HarFok:  IExCor=  402 AccDes= 0.00D+00 IRadAn=         1 IDoV= 1
 ScaDFX=  1.000000  1.000000  1.000000  1.000000
 FoFCou: FMM=F IPFlag=           0 FMFlag=      100000 FMFlg1=           0
         NFxFlg=           0 DoJE=T BraDBF=F KetDBF=T FulRan=T
         Omega=  0.000000  0.000000  1.000000  0.000000  0.000000 ICntrl=     500 IOpCl=  0
         NMat0=    1 NMatS0=    1 NMatT0=    0 NMatD0=    1 NMtDS0=    0 NMtDT0=    0
         I1Cent=           4 NGrid=           0.
 Petite list used in FoFCou.
