 Entering Gaussian System, Link 0=/data/opt/apps/g09-C01/g09
 Initial command:
 /data/opt/apps/g09-C01/l1.exe /tmp/g09-tuu61186-1150919c21e64fea8x/Gau-1151055.inp -scrdir=/tmp/g09-tuu61186-1150919c21e64fea8x/
 Entering Link 1 = /data/opt/apps/g09-C01/l1.exe PID=   1151062.
  
 Copyright (c) 1988,1990,1992,1993,1995,1998,2003,2009,2011,
            Gaussian, Inc.  All Rights Reserved.
  
 This is part of the Gaussian(R) 09 program.  It is based on
 the Gaussian(R) 03 system (copyright 2003, Gaussian, Inc.),
 the Gaussian(R) 98 system (copyright 1998, Gaussian, Inc.),
 the Gaussian(R) 94 system (copyright 1995, Gaussian, Inc.),
 the Gaussian 92(TM) system (copyright 1992, Gaussian, Inc.),
 the Gaussian 90(TM) system (copyright 1990, Gaussian, Inc.),
 the Gaussian 88(TM) system (copyright 1988, Gaussian, Inc.),
 the Gaussian 86(TM) system (copyright 1986, Carnegie Mellon
 University), and the Gaussian 82(TM) system (copyright 1983,
 Carnegie Mellon University). Gaussian is a federally registered
 trademark of Gaussian, Inc.
  
 This software contains proprietary and confidential information,
 including trade secrets, belonging to Gaussian, Inc.
  
 This software is provided under written license and may be
 used, copied, transmitted, or stored only in accord with that
 written license.
  
 The following legend is applicable only to US Government
 contracts under FAR:
  
                    RESTRICTED RIGHTS LEGEND
  
 Use, reproduction and disclosure by the US Government is
 subject to restrictions as set forth in subparagraphs (a)
 and (c) of the Commercial Computer Software - Restricted
 Rights clause in FAR 52.227-19.
  
 Gaussian, Inc.
 340 Quinnipiac St., Bldg. 40, Wallingford CT 06492
  
  
 ---------------------------------------------------------------
 Warning -- This program may not be used in any manner that
 competes with the business of Gaussian, Inc. or will provide
 assistance to any competitor of Gaussian, Inc.  The licensee
 of this program is prohibited from giving any competitor of
 Gaussian, Inc. access to this program.  By using this program,
 the user acknowledges that Gaussian, Inc. is engaged in the
 business of creating and licensing software in the field of
 computational chemistry and represents and warrants to the
 licensee that it is not a competitor of Gaussian, Inc. and that
 it will not use this program in any manner prohibited above.
 ---------------------------------------------------------------
  

 Cite this work as:
 Gaussian 09, Revision C.01,
 M. J. Frisch, G. W. Trucks, H. B. Schlegel, G. E. Scuseria, 
 M. A. Robb, J. R. Cheeseman, G. Scalmani, V. Barone, B. Mennucci, 
 G. A. Petersson, H. Nakatsuji, M. Caricato, X. Li, H. P. Hratchian, 
 A. F. Izmaylov, J. Bloino, G. Zheng, J. L. Sonnenberg, M. Hada, 
 M. Ehara, K. Toyota, R. Fukuda, J. Hasegawa, M. Ishida, T. Nakajima, 
 Y. Honda, O. Kitao, H. Nakai, T. Vreven, J. A. Montgomery, Jr., 
 J. E. Peralta, F. Ogliaro, M. Bearpark, J. J. Heyd, E. Brothers, 
 K. N. Kudin, V. N. Staroverov, T. Keith, R. Kobayashi, J. Normand, 
 K. Raghavachari, A. Rendell, J. C. Burant, S. S. Iyengar, J. Tomasi, 
 M. Cossi, N. Rega, J. M. Millam, M. Klene, J. E. Knox, J. B. Cross, 
 V. Bakken, C. Adamo, J. Jaramillo, R. Gomperts, R. E. Stratmann, 
 O. Yazyev, A. J. Austin, R. Cammi, C. Pomelli, J. W. Ochterski, 
 R. L. Martin, K. Morokuma, V. G. Zakrzewski, G. A. Voth, 
 P. Salvador, J. J. Dannenberg, S. Dapprich, A. D. Daniels, 
 O. Farkas, J. B. Foresman, J. V. Ortiz, J. Cioslowski, 
 and D. J. Fox, Gaussian, Inc., Wallingford CT, 2010.
 
 ******************************************
 Gaussian 09:  EM64L-G09RevC.01 23-Sep-2011
                24-Apr-2026 
 ******************************************
 %nprocshared=8
 Will use up to    8 processors via shared memory.
 %mem=14GB
 -----------------------------------
 # opt=modredundant b3lyp/6-31g(d,p)
 -----------------------------------
 1/14=-1,18=120,19=15,26=3,38=1/1,3;
 2/9=110,12=2,17=6,18=5,40=1/2;
 3/5=1,6=6,7=101,11=2,16=1,25=1,30=1,71=1,74=-5/1,2,3;
 4//1;
 5/5=2,38=5/2;
 6/7=2,8=2,9=2,10=2,28=1/1;
 7//1,2,3,16;
 1/14=-1,18=20,19=15/3(2);
 2/9=110/2;
 99//99;
 2/9=110/2;
 3/5=1,6=6,7=101,11=2,16=1,25=1,30=1,71=1,74=-5/1,2,3;
 4/5=5,16=3/1;
 5/5=2,38=5/2;
 7//1,2,3,16;
 1/14=-1,18=20,19=15/3(-5);
 2/9=110/2;
 6/7=2,8=2,9=2,10=2,19=2,28=1/1;
 99/9=1/99;
 ---------------
 QM dihedral opt
 ---------------
 Charge =  0 Multiplicity = 1
 Symbolic Z-Matrix:
 C                     0.6594    2.71941  -0.94993 
 C                    -0.27889   1.76121  -0.22773 
 O                    -1.49272   1.92365  -0.26611 
 N                     0.27925   0.68997   0.44014 
 C                    -0.59466  -0.14998   1.27428 
 C                    -2.02617  -0.48883   0.81011 
 O                    -2.9252   -0.34952   1.63123 
 N                    -2.23561  -1.0816   -0.41038 
 C                    -1.24267  -1.2164   -1.45882 
 C                    -3.61226  -1.31347  -0.82749 
 H                     0.04502   3.33264  -1.6085 
 H                     1.42532   2.2071   -1.53904 
 H                     1.16735   3.38111  -0.23977 
 H                    -0.06793  -1.09697   1.44128 
 H                    -0.74866   0.31964   2.25081 
 H                    -0.23596  -1.22521  -1.04679 
 H                    -1.40365  -2.16267  -1.98757 
 H                    -1.30988  -0.39908  -2.19074 
 H                    -3.70977  -2.3191   -1.25245 
 H                    -4.25687  -1.21652   0.04362 
 H                    -3.91937  -0.58166  -1.58668 
 C                     1.70894   0.58641   0.73789 
 H                     2.2077    1.53648   0.54563 
 H                     1.841     0.37825   1.80593 
 C                     2.41469  -0.50705  -0.06652 
 H                     2.33609  -0.2932   -1.14623 
 H                     1.9355   -1.48639   0.10614 
 O                     3.76154  -0.52747   0.35277 
 C                     4.53463  -1.50846  -0.30975 
 H                     5.54963  -1.44283   0.08785 
 H                     4.14626  -2.52285  -0.13023 
 H                     4.5657   -1.33768  -1.39693 
 
 The following ModRedundant input section has been read:
 D       2       4       5       6 F                                           
 D       4       5       6       8 S  36 10.000                                

 GradGradGradGradGradGradGradGradGradGradGradGradGradGradGradGradGradGrad
 Berny optimization.
 Initialization pass.
                           ----------------------------
                           !    Initial Parameters    !
                           ! (Angstroms and Degrees)  !
 --------------------------                            --------------------------
 ! Name  Definition              Value          Derivative Info.                !
 --------------------------------------------------------------------------------
 ! R1    R(1,2)                  1.5232         estimate D2E/DX2                !
 ! R2    R(1,11)                 1.0896         estimate D2E/DX2                !
 ! R3    R(1,12)                 1.0937         estimate D2E/DX2                !
 ! R4    R(1,13)                 1.0955         estimate D2E/DX2                !
 ! R5    R(2,3)                  1.2253         estimate D2E/DX2                !
 ! R6    R(2,4)                  1.3803         estimate D2E/DX2                !
 ! R7    R(4,5)                  1.4714         estimate D2E/DX2                !
 ! R8    R(4,22)                 1.464          estimate D2E/DX2                !
 ! R9    R(5,6)                  1.5426         estimate D2E/DX2                !
 ! R10   R(5,14)                 1.0964         estimate D2E/DX2                !
 ! R11   R(5,15)                 1.0945         estimate D2E/DX2                !
 ! R12   R(6,7)                  1.2255         estimate D2E/DX2                !
 ! R13   R(6,8)                  1.3729         estimate D2E/DX2                !
 ! R14   R(8,9)                  1.4503         estimate D2E/DX2                !
 ! R15   R(8,10)                 1.457          estimate D2E/DX2                !
 ! R16   R(9,16)                 1.0878         estimate D2E/DX2                !
 ! R17   R(9,17)                 1.0959         estimate D2E/DX2                !
 ! R18   R(9,18)                 1.0992         estimate D2E/DX2                !
 ! R19   R(10,19)                1.0961         estimate D2E/DX2                !
 ! R20   R(10,20)                1.088          estimate D2E/DX2                !
 ! R21   R(10,21)                1.0983         estimate D2E/DX2                !
 ! R22   R(22,23)                1.0901         estimate D2E/DX2                !
 ! R23   R(22,24)                1.0961         estimate D2E/DX2                !
 ! R24   R(22,25)                1.53           estimate D2E/DX2                !
 ! R25   R(25,26)                1.1035         estimate D2E/DX2                !
 ! R26   R(25,27)                1.1039         estimate D2E/DX2                !
 ! R27   R(25,28)                1.4107         estimate D2E/DX2                !
 ! R28   R(28,29)                1.4138         estimate D2E/DX2                !
 ! R29   R(29,30)                1.0921         estimate D2E/DX2                !
 ! R30   R(29,31)                1.1009         estimate D2E/DX2                !
 ! R31   R(29,32)                1.1009         estimate D2E/DX2                !
 ! A1    A(2,1,11)             107.0544         estimate D2E/DX2                !
 ! A2    A(2,1,12)             113.0862         estimate D2E/DX2                !
 ! A3    A(2,1,13)             110.9909         estimate D2E/DX2                !
 ! A4    A(11,1,12)            109.4479         estimate D2E/DX2                !
 ! A5    A(11,1,13)            108.2578         estimate D2E/DX2                !
 ! A6    A(12,1,13)            107.9026         estimate D2E/DX2                !
 ! A7    A(1,2,3)              120.7981         estimate D2E/DX2                !
 ! A8    A(1,2,4)              117.9408         estimate D2E/DX2                !
 ! A9    A(3,2,4)              121.2416         estimate D2E/DX2                !
 ! A10   A(2,4,5)              118.5016         estimate D2E/DX2                !
 ! A11   A(2,4,22)             123.2433         estimate D2E/DX2                !
 ! A12   A(5,4,22)             115.1077         estimate D2E/DX2                !
 ! A13   A(4,5,6)              120.3965         estimate D2E/DX2                !
 ! A14   A(4,5,14)             107.1016         estimate D2E/DX2                !
 ! A15   A(4,5,15)             110.1476         estimate D2E/DX2                !
 ! A16   A(6,5,14)             107.5736         estimate D2E/DX2                !
 ! A17   A(6,5,15)             103.4248         estimate D2E/DX2                !
 ! A18   A(14,5,15)            107.5955         estimate D2E/DX2                !
 ! A19   A(5,6,7)              117.0129         estimate D2E/DX2                !
 ! A20   A(5,6,8)              120.2603         estimate D2E/DX2                !
 ! A21   A(7,6,8)              122.1949         estimate D2E/DX2                !
 ! A22   A(6,8,9)              125.3344         estimate D2E/DX2                !
 ! A23   A(6,8,10)             117.8625         estimate D2E/DX2                !
 ! A24   A(9,8,10)             115.1595         estimate D2E/DX2                !
 ! A25   A(8,9,16)             111.1333         estimate D2E/DX2                !
 ! A26   A(8,9,17)             109.177          estimate D2E/DX2                !
 ! A27   A(8,9,18)             111.7397         estimate D2E/DX2                !
 ! A28   A(16,9,17)            108.1627         estimate D2E/DX2                !
 ! A29   A(16,9,18)            108.35           estimate D2E/DX2                !
 ! A30   A(17,9,18)            108.168          estimate D2E/DX2                !
 ! A31   A(8,10,19)            109.9413         estimate D2E/DX2                !
 ! A32   A(8,10,20)            108.4455         estimate D2E/DX2                !
 ! A33   A(8,10,21)            110.8586         estimate D2E/DX2                !
 ! A34   A(19,10,20)           109.844          estimate D2E/DX2                !
 ! A35   A(19,10,21)           108.5692         estimate D2E/DX2                !
 ! A36   A(20,10,21)           109.1716         estimate D2E/DX2                !
 ! A37   A(4,22,23)            110.4429         estimate D2E/DX2                !
 ! A38   A(4,22,24)            109.2236         estimate D2E/DX2                !
 ! A39   A(4,22,25)            113.209          estimate D2E/DX2                !
 ! A40   A(23,22,24)           106.3937         estimate D2E/DX2                !
 ! A41   A(23,22,25)           108.6084         estimate D2E/DX2                !
 ! A42   A(24,22,25)           108.7235         estimate D2E/DX2                !
 ! A43   A(22,25,26)           110.0643         estimate D2E/DX2                !
 ! A44   A(22,25,27)           110.5841         estimate D2E/DX2                !
 ! A45   A(22,25,28)           107.1257         estimate D2E/DX2                !
 ! A46   A(26,25,27)           107.1009         estimate D2E/DX2                !
 ! A47   A(26,25,28)           111.1994         estimate D2E/DX2                !
 ! A48   A(27,25,28)           110.8002         estimate D2E/DX2                !
 ! A49   A(25,28,29)           113.1295         estimate D2E/DX2                !
 ! A50   A(28,29,30)           107.2124         estimate D2E/DX2                !
 ! A51   A(28,29,31)           111.7154         estimate D2E/DX2                !
 ! A52   A(28,29,32)           111.7488         estimate D2E/DX2                !
 ! A53   A(30,29,31)           108.8976         estimate D2E/DX2                !
 ! A54   A(30,29,32)           108.9036         estimate D2E/DX2                !
 ! A55   A(31,29,32)           108.2945         estimate D2E/DX2                !
 ! D1    D(11,1,2,3)           -12.3144         estimate D2E/DX2                !
 ! D2    D(11,1,2,4)           166.0989         estimate D2E/DX2                !
 ! D3    D(12,1,2,3)          -132.9344         estimate D2E/DX2                !
 ! D4    D(12,1,2,4)            45.4789         estimate D2E/DX2                !
 ! D5    D(13,1,2,3)           105.6355         estimate D2E/DX2                !
 ! D6    D(13,1,2,4)           -75.9512         estimate D2E/DX2                !
 ! D7    D(1,2,4,5)            172.7583         estimate D2E/DX2                !
 ! D8    D(1,2,4,22)            13.8147         estimate D2E/DX2                !
 ! D9    D(3,2,4,5)             -8.8358         estimate D2E/DX2                !
 ! D10   D(3,2,4,22)          -167.7795         estimate D2E/DX2                !
 ! D11   D(2,4,5,6)             38.6699         Frozen                          !
 ! D12   D(2,4,5,14)           161.8125         estimate D2E/DX2                !
 ! D13   D(2,4,5,15)           -81.4582         estimate D2E/DX2                !
 ! D14   D(22,4,5,6)          -160.7109         estimate D2E/DX2                !
 ! D15   D(22,4,5,14)          -37.5683         estimate D2E/DX2                !
 ! D16   D(22,4,5,15)           79.161          estimate D2E/DX2                !
 ! D17   D(2,4,22,23)           11.4041         estimate D2E/DX2                !
 ! D18   D(2,4,22,24)          128.0817         estimate D2E/DX2                !
 ! D19   D(2,4,22,25)         -110.6257         estimate D2E/DX2                !
 ! D20   D(5,4,22,23)         -148.1887         estimate D2E/DX2                !
 ! D21   D(5,4,22,24)          -31.5111         estimate D2E/DX2                !
 ! D22   D(5,4,22,25)           89.7815         estimate D2E/DX2                !
 ! D23   D(4,5,6,7)           -132.6704         estimate D2E/DX2                !
 ! D24   D(4,5,6,8)             55.5115         Scan                            !
 ! D25   D(14,5,6,7)           104.4136         estimate D2E/DX2                !
 ! D26   D(14,5,6,8)           -67.4045         estimate D2E/DX2                !
 ! D27   D(15,5,6,7)            -9.2645         estimate D2E/DX2                !
 ! D28   D(15,5,6,8)           178.9174         estimate D2E/DX2                !
 ! D29   D(5,6,8,9)            -12.1479         estimate D2E/DX2                !
 ! D30   D(5,6,8,10)          -176.7805         estimate D2E/DX2                !
 ! D31   D(7,6,8,9)            176.469          estimate D2E/DX2                !
 ! D32   D(7,6,8,10)            11.8365         estimate D2E/DX2                !
 ! D33   D(6,8,9,16)            26.1673         estimate D2E/DX2                !
 ! D34   D(6,8,9,17)           145.3936         estimate D2E/DX2                !
 ! D35   D(6,8,9,18)           -94.9972         estimate D2E/DX2                !
 ! D36   D(10,8,9,16)         -168.8342         estimate D2E/DX2                !
 ! D37   D(10,8,9,17)          -49.6079         estimate D2E/DX2                !
 ! D38   D(10,8,9,18)           70.0013         estimate D2E/DX2                !
 ! D39   D(6,8,10,19)         -135.7199         estimate D2E/DX2                !
 ! D40   D(6,8,10,20)          -15.6088         estimate D2E/DX2                !
 ! D41   D(6,8,10,21)          104.2295         estimate D2E/DX2                !
 ! D42   D(9,8,10,19)           58.0989         estimate D2E/DX2                !
 ! D43   D(9,8,10,20)          178.21           estimate D2E/DX2                !
 ! D44   D(9,8,10,21)          -61.9517         estimate D2E/DX2                !
 ! D45   D(4,22,25,26)          61.0808         estimate D2E/DX2                !
 ! D46   D(4,22,25,27)         -57.0557         estimate D2E/DX2                !
 ! D47   D(4,22,25,28)        -177.8961         estimate D2E/DX2                !
 ! D48   D(23,22,25,26)        -61.9686         estimate D2E/DX2                !
 ! D49   D(23,22,25,27)        179.8948         estimate D2E/DX2                !
 ! D50   D(23,22,25,28)         59.0545         estimate D2E/DX2                !
 ! D51   D(24,22,25,26)       -177.3452         estimate D2E/DX2                !
 ! D52   D(24,22,25,27)         64.5182         estimate D2E/DX2                !
 ! D53   D(24,22,25,28)        -56.3221         estimate D2E/DX2                !
 ! D54   D(22,25,28,29)        179.577          estimate D2E/DX2                !
 ! D55   D(26,25,28,29)        -60.1207         estimate D2E/DX2                !
 ! D56   D(27,25,28,29)         58.8738         estimate D2E/DX2                !
 ! D57   D(25,28,29,30)       -179.7605         estimate D2E/DX2                !
 ! D58   D(25,28,29,31)        -60.5291         estimate D2E/DX2                !
 ! D59   D(25,28,29,32)         60.9814         estimate D2E/DX2                !
 --------------------------------------------------------------------------------
 Trust Radius=3.00D-01 FncErr=1.00D-07 GrdErr=1.00D-06
 Number of optimizations in scan=  37
 Number of steps in this run=    155 maximum allowed number of steps=    192.
 GradGradGradGradGradGradGradGradGradGradGradGradGradGradGradGradGradGrad

                          Input orientation:                          
 ---------------------------------------------------------------------
 Center     Atomic      Atomic             Coordinates (Angstroms)
 Number     Number       Type             X           Y           Z
 ---------------------------------------------------------------------
      1          6           0        0.659399    2.719406   -0.949932
      2          6           0       -0.278890    1.761214   -0.227729
      3          8           0       -1.492721    1.923649   -0.266105
      4          7           0        0.279248    0.689974    0.440140
      5          6           0       -0.594663   -0.149976    1.274280
      6          6           0       -2.026166   -0.488826    0.810105
      7          8           0       -2.925201   -0.349523    1.631231
      8          7           0       -2.235612   -1.081604   -0.410379
      9          6           0       -1.242666   -1.216402   -1.458823
     10          6           0       -3.612256   -1.313467   -0.827491
     11          1           0        0.045015    3.332643   -1.608496
     12          1           0        1.425318    2.207095   -1.539042
     13          1           0        1.167346    3.381114   -0.239770
     14          1           0       -0.067928   -1.096970    1.441283
     15          1           0       -0.748658    0.319641    2.250813
     16          1           0       -0.235958   -1.225206   -1.046787
     17          1           0       -1.403646   -2.162671   -1.987570
     18          1           0       -1.309879   -0.399076   -2.190741
     19          1           0       -3.709774   -2.319102   -1.252452
     20          1           0       -4.256871   -1.216517    0.043621
     21          1           0       -3.919373   -0.581661   -1.586681
     22          6           0        1.708943    0.586411    0.737894
     23          1           0        2.207698    1.536475    0.545630
     24          1           0        1.841004    0.378254    1.805934
     25          6           0        2.414692   -0.507053   -0.066520
     26          1           0        2.336088   -0.293198   -1.146233
     27          1           0        1.935499   -1.486385    0.106140
     28          8           0        3.761538   -0.527473    0.352766
     29          6           0        4.534633   -1.508456   -0.309752
     30          1           0        5.549626   -1.442828    0.087845
     31          1           0        4.146259   -2.522845   -0.130232
     32          1           0        4.565700   -1.337681   -1.396927
 ---------------------------------------------------------------------
                    Distance matrix (angstroms):
                    1          2          3          4          5
     1  C    0.000000
     2  C    1.523186   0.000000
     3  O    2.394258   1.225252   0.000000
     4  N    2.489058   1.380262   2.271698   0.000000
     5  C    3.840982   2.451202   2.734815   1.471403   0.000000
     6  C    4.539024   3.031955   2.694963   2.615603   1.542556
     7  O    5.378669   3.861853   3.289254   3.573198   2.366145
     8  N    4.808314   3.455971   3.099072   3.191613   2.529569
     9  C    4.400842   3.363132   3.368238   3.091367   3.004501
    10  C    5.875891   4.574353   3.909796   4.556805   3.857074
    11  H    1.089603   2.116795   2.480304   3.351936   4.565985
    12  H    1.093684   2.196059   3.196195   2.744502   4.189378
    13  H    1.095535   2.171594   3.033291   2.914315   4.226774
    14  H    4.561978   3.316523   3.750913   2.077495   1.096420
    15  H    4.241022   2.905509   3.075930   2.114775   1.094473
    16  H    4.046110   3.096999   3.479110   2.478771   2.583049
    17  H    5.400697   4.445109   4.435018   4.106518   3.917277
    18  H    3.891348   3.095676   3.022037   3.260811   3.546823
    19  H    6.675908   5.428628   4.887652   5.275576   4.559978
    20  H    6.375606   4.976429   4.194890   4.936427   4.007967
    21  H    5.680462   4.537503   3.729496   4.832544   4.407397
    22  C    2.915470   2.502812   3.612045   1.464039   2.477211
    23  H    2.456270   2.613754   3.808138   2.108699   3.350862
    24  H    3.804206   3.246893   4.218449   2.098010   2.548364
    25  C    3.777765   3.525111   4.606085   2.499940   3.313830
    26  H    3.453347   3.449981   4.510966   2.777372   3.803774
    27  H    4.520221   3.944856   4.849700   2.755224   3.090673
    28  O    4.675736   4.679757   5.830801   3.690007   4.468577
    29  C    5.770796   5.819577   6.936155   4.848065   5.537536
    30  H    6.505036   6.658609   7.813648   5.696476   6.389944
    31  H    6.349118   6.159920   7.182469   5.059773   5.484478
    32  H    5.649686   5.868580   6.972768   5.085260   5.930880
                    6          7          8          9         10
     6  C    0.000000
     7  O    1.225527   0.000000
     8  N    1.372893   2.275884   0.000000
     9  C    2.508241   3.623650   1.450292   0.000000
    10  C    2.424342   2.728836   1.457015   2.454172   0.000000
    11  H    4.974238   5.733791   5.111000   4.730152   5.964222
    12  H    4.969831   5.959358   5.048943   4.341072   6.186907
    13  H    5.126128   5.845275   5.614720   5.332110   6.725259
    14  H    2.145442   2.959521   2.850920   3.131276   4.213842
    15  H    2.088369   2.359873   3.355065   4.045352   4.510343
    16  H    2.682377   3.894949   2.103391   1.087802   3.384563
    17  H    3.319077   4.324160   2.085283   1.095862   2.635316
    18  H    3.086454   4.149601   2.119555   1.099201   2.827632
    19  H    3.230880   3.579165   2.100867   2.710195   1.096085
    20  H    2.468416   2.246226   2.076007   3.367903   1.088009
    21  H    3.055722   3.375977   2.113925   2.753907   1.098285
    22  C    3.887466   4.811373   4.433996   4.097279   5.863030
    23  H    4.700787   5.575139   5.245121   4.847801   6.624160
    24  H    4.086381   4.824613   4.864363   4.765563   6.287678
    25  C    4.526591   5.605500   4.698263   3.977179   6.128090
    26  H    4.784850   5.949676   4.697181   3.709110   6.043620
    27  H    4.145537   5.219652   4.222417   3.552849   5.628424
    28  O    5.805874   6.810185   6.070853   5.366427   7.508903
    29  C    6.733336   7.794849   6.784434   5.897698   8.165652
    30  H    7.669707   8.683320   7.809522   6.969841   9.208401
    31  H    6.566605   7.604711   6.548583   5.701970   7.883103
    32  H    7.003159   8.140012   6.877259   5.809962   8.197793
                   11         12         13         14         15
    11  H    0.000000
    12  H    1.782391   0.000000
    13  H    1.770702   1.770022   0.000000
    14  H    5.379162   4.693503   4.940150   0.000000
    15  H    4.960077   4.759376   4.387105   1.767914   0.000000
    16  H    4.600918   3.844846   4.882491   2.497032   3.677442
    17  H    5.695682   5.224851   6.355970   3.831043   4.955277
    18  H    4.012540   3.833816   4.922679   3.901422   4.534195
    19  H    6.794662   6.851114   7.569959   4.691786   5.291884
    20  H    6.475382   6.820060   7.116225   4.417578   4.420298
    21  H    5.571232   6.028694   6.587296   4.926230   5.058867
    22  C    3.976933   2.809181   3.009903   2.546723   2.898257
    23  H    3.541705   2.325448   2.258734   3.593842   3.623310
    24  H    4.859251   3.834882   3.695387   2.439934   2.628251
    25  C    4.768262   3.242496   4.087020   2.963929   4.007523
    26  H    4.313864   2.689845   3.960833   3.622234   4.629379
    27  H    5.453158   4.075378   4.939864   2.438846   3.881501
    28  O    5.706101   4.063831   4.728423   4.021692   4.966090
    29  C    6.729015   4.998431   5.937290   4.941560   6.149113
    30  H    7.482208   5.742701   6.525498   5.788638   6.888622
    31  H    7.300151   5.635654   6.613823   4.718278   6.140791
    32  H    6.503328   4.737893   5.929152   5.439107   6.655458
                   16         17         18         19         20
    16  H    0.000000
    17  H    1.768448   0.000000
    18  H    1.773253   1.777734   0.000000
    19  H    3.647781   2.425509   3.213469   0.000000
    20  H    4.166150   3.627925   3.787525   1.787404   0.000000
    21  H    3.777986   2.998197   2.684713   1.781668   1.781806
    22  C    3.201513   4.967275   4.319881   6.462660   6.270845
    23  H    4.016731   5.756960   4.858748   7.288007   7.044262
    24  H    3.875935   5.601315   5.148370   6.887713   6.544702
    25  C    2.915924   4.583799   4.289103   6.496079   6.710084
    26  H    2.737508   4.264785   3.794112   6.377148   6.762794
    27  H    2.472384   3.998859   4.121939   5.865859   6.198563
    28  O    4.292500   5.901709   5.674961   7.849023   8.053896
    29  C    4.835493   6.205339   6.239164   8.337630   8.803445
    30  H    5.899808   7.292017   7.303025   9.396847   9.809208
    31  H    4.661305   5.863521   6.206894   7.938397   8.505840
    32  H    4.815721   6.054962   6.002795   8.334718   8.940225
                   21         22         23         24         25
    21  H    0.000000
    22  C    6.200482   0.000000
    23  H    6.824533   1.090112   0.000000
    24  H    6.753756   1.096120   1.750516   0.000000
    25  C    6.514356   1.529976   2.143264   2.149179   0.000000
    26  H    6.277579   2.171856   2.495313   3.067775   1.103491
    27  H    6.161469   2.178744   3.066745   2.524898   1.103870
    28  O    7.922170   2.366898   2.590656   2.573031   1.410749
    29  C    8.599983   3.670225   3.926565   3.910427   2.357142
    30  H    9.654408   4.392177   4.500477   4.474600   3.275258
    31  H    8.422818   4.044951   4.548944   4.180827   2.658157
    32  H    8.520800   4.052240   4.194577   4.541665   2.662097
                   26         27         28         29         30
    26  H    0.000000
    27  H    1.775558   0.000000
    28  O    2.081776   2.077199   0.000000
    29  C    2.647669   2.632290   1.413836   0.000000
    30  H    3.629246   3.614436   2.026158   1.092063   0.000000
    31  H    3.046359   2.453076   2.088733   1.100930   1.784218
    32  H    2.474866   3.033032   2.089148   1.100944   1.784297
                   31         32
    31  H    0.000000
    32  H    1.784674   0.000000
 Stoichiometry    C9H18N2O3
 Framework group  C1[X(C9H18N2O3)]
 Deg. of freedom    90
 Full point group                 C1      NOp   1
 Largest Abelian subgroup         C1      NOp   1
 Largest concise Abelian subgroup C1      NOp   1
                         Standard orientation:                         
 ---------------------------------------------------------------------
 Center     Atomic      Atomic             Coordinates (Angstroms)
 Number     Number       Type             X           Y           Z
 ---------------------------------------------------------------------
      1          6           0        0.659399    2.719406   -0.949932
      2          6           0       -0.278890    1.761214   -0.227729
      3          8           0       -1.492721    1.923649   -0.266105
      4          7           0        0.279248    0.689974    0.440140
      5          6           0       -0.594663   -0.149976    1.274280
      6          6           0       -2.026166   -0.488826    0.810105
      7          8           0       -2.925201   -0.349523    1.631231
      8          7           0       -2.235612   -1.081604   -0.410379
      9          6           0       -1.242666   -1.216402   -1.458823
     10          6           0       -3.612256   -1.313467   -0.827491
     11          1           0        0.045015    3.332643   -1.608496
     12          1           0        1.425318    2.207095   -1.539042
     13          1           0        1.167346    3.381114   -0.239770
     14          1           0       -0.067928   -1.096970    1.441283
     15          1           0       -0.748658    0.319641    2.250813
     16          1           0       -0.235958   -1.225206   -1.046787
     17          1           0       -1.403646   -2.162671   -1.987570
     18          1           0       -1.309879   -0.399076   -2.190741
     19          1           0       -3.709774   -2.319102   -1.252452
     20          1           0       -4.256871   -1.216517    0.043621
     21          1           0       -3.919373   -0.581661   -1.586681
     22          6           0        1.708943    0.586411    0.737894
     23          1           0        2.207698    1.536475    0.545630
     24          1           0        1.841004    0.378254    1.805934
     25          6           0        2.414692   -0.507053   -0.066520
     26          1           0        2.336088   -0.293198   -1.146233
     27          1           0        1.935499   -1.486385    0.106140
     28          8           0        3.761538   -0.527473    0.352766
     29          6           0        4.534633   -1.508456   -0.309752
     30          1           0        5.549626   -1.442828    0.087845
     31          1           0        4.146259   -2.522845   -0.130232
     32          1           0        4.565700   -1.337681   -1.396927
 ---------------------------------------------------------------------
 Rotational constants (GHZ):      0.9866066      0.3709886      0.3267237
 Standard basis: 6-31G(d,p) (6D, 7F)
 There are   300 symmetry adapted basis functions of A   symmetry.
 Integral buffers will be    131072 words long.
 Raffenetti 2 integral format.
 Two-electron integral symmetry is turned on.
   300 basis functions,   518 primitive gaussians,   300 cartesian basis functions
    55 alpha electrons       55 beta electrons
       nuclear repulsion energy       978.5386595119 Hartrees.
 NAtoms=   32 NActive=   32 NUniq=   32 SFac= 1.00D+00 NAtFMM=   60 NAOKFM=F Big=F
 One-electron integrals computed using PRISM.
 NBasis=   300 RedAO= T  NBF=   300
 NBsUse=   300 1.00D-06 NBFU=   300
 Harris functional with IExCor=  402 diagonalized for initial guess.
 ExpMin= 1.61D-01 ExpMax= 5.48D+03 ExpMxC= 8.25D+02 IAcc=1 IRadAn=         1 AccDes= 0.00D+00
 HarFok:  IExCor=  402 AccDes= 0.00D+00 IRadAn=         1 IDoV= 1
 ScaDFX=  1.000000  1.000000  1.000000  1.000000
 FoFCou: FMM=F IPFlag=           0 FMFlag=      100000 FMFlg1=           0
         NFxFlg=           0 DoJE=T BraDBF=F KetDBF=T FulRan=T
         Omega=  0.000000  0.000000  1.000000  0.000000  0.000000 ICntrl=     500 IOpCl=  0
         NMat0=    1 NMatS0=    1 NMatT0=    0 NMatD0=    1 NMtDS0=    0 NMtDT0=    0
         I1Cent=           4 NGrid=           0.
 Petite list used in FoFCou.
 Initial guess orbital symmetries:
       Occupied  (A) (A) (A) (A) (A) (A) (A) (A) (A) (A) (A) (A)
                 (A) (A) (A) (A) (A) (A) (A) (A) (A) (A) (A) (A)
                 (A) (A) (A) (A) (A) (A) (A) (A) (A) (A) (A) (A)
                 (A) (A) (A) (A) (A) (A) (A) (A) (A) (A) (A) (A)
                 (A) (A) (A) (A) (A) (A) (A)
       Virtual   (A) (A) (A) (A) (A) (A) (A) (A) (A) (A) (A) (A)
                 (A) (A) (A) (A) (A) (A) (A) (A) (A) (A) (A) (A)
                 (A) (A) (A) (A) (A) (A) (A) (A) (A) (A) (A) (A)
                 (A) (A) (A) (A) (A) (A) (A) (A) (A) (A) (A) (A)
                 (A) (A) (A) (A) (A) (A) (A) (A) (A) (A) (A) (A)
                 (A) (A) (A) (A) (A) (A) (A) (A) (A) (A) (A) (A)
                 (A) (A) (A) (A) (A) (A) (A) (A) (A) (A) (A) (A)
                 (A) (A) (A) (A) (A) (A) (A) (A) (A) (A) (A) (A)
                 (A) (A) (A) (A) (A) (A) (A) (A) (A) (A) (A) (A)
                 (A) (A) (A) (A) (A) (A) (A) (A) (A) (A) (A) (A)
                 (A) (A) (A) (A) (A) (A) (A) (A) (A) (A) (A) (A)
                 (A) (A) (A) (A) (A) (A) (A) (A) (A) (A) (A) (A)
                 (A) (A) (A) (A) (A) (A) (A) (A) (A) (A) (A) (A)
                 (A) (A) (A) (A) (A) (A) (A) (A) (A) (A) (A) (A)
                 (A) (A) (A) (A) (A) (A) (A) (A) (A) (A) (A) (A)
                 (A) (A) (A) (A) (A) (A) (A) (A) (A) (A) (A) (A)
                 (A) (A) (A) (A) (A) (A) (A) (A) (A) (A) (A) (A)
                 (A) (A) (A) (A) (A) (A) (A) (A) (A) (A) (A) (A)
                 (A) (A) (A) (A) (A) (A) (A) (A) (A) (A) (A) (A)
                 (A) (A) (A) (A) (A) (A) (A) (A) (A) (A) (A) (A)
                 (A) (A) (A) (A) (A)
 The electronic state of the initial guess is 1-A.
 Requested convergence on RMS density matrix=1.00D-08 within 128 cycles.
 Requested convergence on MAX density matrix=1.00D-06.
 Requested convergence on             energy=1.00D-06.
 No special actions if energy rises.
 Keep R1 ints in memory in canonical form, NReq=1033483601.
 Integral accuracy reduced to 1.0D-05 until final iterations.
 Initial convergence to 1.0D-05 achieved.  Increase integral accuracy.
 SCF Done:  E(RB3LYP) =  -688.987154354     A.U. after   14 cycles
             Convg  =    0.7697D-08             -V/T =  2.0093

 **********************************************************************

            Population analysis using the SCF density.

 **********************************************************************

 Orbital symmetries:
       Occupied  (A) (A) (A) (A) (A) (A) (A) (A) (A) (A) (A) (A)
                 (A) (A) (A) (A) (A) (A) (A) (A) (A) (A) (A) (A)
                 (A) (A) (A) (A) (A) (A) (A) (A) (A) (A) (A) (A)
                 (A) (A) (A) (A) (A) (A) (A) (A) (A) (A) (A) (A)
                 (A) (A) (A) (A) (A) (A) (A)
       Virtual   (A) (A) (A) (A) (A) (A) (A) (A) (A) (A) (A) (A)
                 (A) (A) (A) (A) (A) (A) (A) (A) (A) (A) (A) (A)
                 (A) (A) (A) (A) (A) (A) (A) (A) (A) (A) (A) (A)
                 (A) (A) (A) (A) (A) (A) (A) (A) (A) (A) (A) (A)
                 (A) (A) (A) (A) (A) (A) (A) (A) (A) (A) (A) (A)
                 (A) (A) (A) (A) (A) (A) (A) (A) (A) (A) (A) (A)
                 (A) (A) (A) (A) (A) (A) (A) (A) (A) (A) (A) (A)
                 (A) (A) (A) (A) (A) (A) (A) (A) (A) (A) (A) (A)
                 (A) (A) (A) (A) (A) (A) (A) (A) (A) (A) (A) (A)
                 (A) (A) (A) (A) (A) (A) (A) (A) (A) (A) (A) (A)
                 (A) (A) (A) (A) (A) (A) (A) (A) (A) (A) (A) (A)
                 (A) (A) (A) (A) (A) (A) (A) (A) (A) (A) (A) (A)
                 (A) (A) (A) (A) (A) (A) (A) (A) (A) (A) (A) (A)
                 (A) (A) (A) (A) (A) (A) (A) (A) (A) (A) (A) (A)
                 (A) (A) (A) (A) (A) (A) (A) (A) (A) (A) (A) (A)
                 (A) (A) (A) (A) (A) (A) (A) (A) (A) (A) (A) (A)
                 (A) (A) (A) (A) (A) (A) (A) (A) (A) (A) (A) (A)
                 (A) (A) (A) (A) (A) (A) (A) (A) (A) (A) (A) (A)
                 (A) (A) (A) (A) (A) (A) (A) (A) (A) (A) (A) (A)
                 (A) (A) (A) (A) (A) (A) (A) (A) (A) (A) (A) (A)
                 (A) (A) (A) (A) (A)
 The electronic state is 1-A.
 Alpha  occ. eigenvalues --  -19.16595 -19.11473 -19.09495 -14.37287 -14.35406
 Alpha  occ. eigenvalues --  -10.29086 -10.27760 -10.25093 -10.24168 -10.23704
 Alpha  occ. eigenvalues --  -10.22961 -10.21860 -10.20131 -10.19697  -1.05003
 Alpha  occ. eigenvalues --   -1.03730  -1.01712  -0.93956  -0.92078  -0.77845
 Alpha  occ. eigenvalues --   -0.76048  -0.72181  -0.71154  -0.68822  -0.67239
 Alpha  occ. eigenvalues --   -0.63410  -0.56995  -0.53733  -0.51559  -0.50680
 Alpha  occ. eigenvalues --   -0.49002  -0.48452  -0.47525  -0.46492  -0.46140
 Alpha  occ. eigenvalues --   -0.45089  -0.44434  -0.43162  -0.42510  -0.40407
 Alpha  occ. eigenvalues --   -0.40029  -0.39715  -0.39581  -0.39159  -0.38156
 Alpha  occ. eigenvalues --   -0.37391  -0.36775  -0.35690  -0.34816  -0.33595
 Alpha  occ. eigenvalues --   -0.27292  -0.25438  -0.24554  -0.23613  -0.22651
 Alpha virt. eigenvalues --    0.01822   0.03336   0.06656   0.07663   0.09189
 Alpha virt. eigenvalues --    0.10328   0.11763   0.11994   0.13267   0.14093
 Alpha virt. eigenvalues --    0.14385   0.15042   0.15291   0.15852   0.16168
 Alpha virt. eigenvalues --    0.16695   0.17130   0.17737   0.18640   0.18887
 Alpha virt. eigenvalues --    0.19869   0.20448   0.20751   0.22236   0.22796
 Alpha virt. eigenvalues --    0.24530   0.25089   0.27118   0.29374   0.33728
 Alpha virt. eigenvalues --    0.34613   0.36952   0.40586   0.46960   0.48003
 Alpha virt. eigenvalues --    0.49849   0.50568   0.50688   0.53052   0.53528
 Alpha virt. eigenvalues --    0.54342   0.55086   0.55616   0.57083   0.57537
 Alpha virt. eigenvalues --    0.58068   0.60047   0.62716   0.63539   0.64057
 Alpha virt. eigenvalues --    0.66684   0.67968   0.69197   0.70185   0.71298
 Alpha virt. eigenvalues --    0.72754   0.74108   0.74508   0.75911   0.78053
 Alpha virt. eigenvalues --    0.78422   0.79099   0.79684   0.81487   0.82825
 Alpha virt. eigenvalues --    0.83778   0.84208   0.85474   0.85617   0.86112
 Alpha virt. eigenvalues --    0.86766   0.87579   0.89341   0.89541   0.89895
 Alpha virt. eigenvalues --    0.91369   0.92082   0.92329   0.93451   0.94877
 Alpha virt. eigenvalues --    0.96160   0.97379   0.98701   0.98980   1.00801
 Alpha virt. eigenvalues --    1.03639   1.04216   1.05987   1.07628   1.10591
 Alpha virt. eigenvalues --    1.11493   1.15673   1.18937   1.20147   1.22482
 Alpha virt. eigenvalues --    1.24724   1.28307   1.30246   1.30877   1.33059
 Alpha virt. eigenvalues --    1.35243   1.36044   1.37477   1.38008   1.40493
 Alpha virt. eigenvalues --    1.41817   1.44659   1.47961   1.50529   1.53514
 Alpha virt. eigenvalues --    1.57470   1.58377   1.61879   1.62655   1.65809
 Alpha virt. eigenvalues --    1.67905   1.68459   1.70522   1.73381   1.74811
 Alpha virt. eigenvalues --    1.74936   1.77825   1.79834   1.80335   1.82939
 Alpha virt. eigenvalues --    1.83840   1.84386   1.86689   1.86810   1.88015
 Alpha virt. eigenvalues --    1.89914   1.90417   1.91946   1.93240   1.94144
 Alpha virt. eigenvalues --    1.95456   1.96167   1.96580   1.99108   1.99477
 Alpha virt. eigenvalues --    2.01529   2.01649   2.02088   2.02309   2.03288
 Alpha virt. eigenvalues --    2.04059   2.04405   2.05097   2.06708   2.07891
 Alpha virt. eigenvalues --    2.08474   2.08970   2.09652   2.10478   2.12174
 Alpha virt. eigenvalues --    2.12958   2.13637   2.15650   2.17774   2.20322
 Alpha virt. eigenvalues --    2.21835   2.22416   2.25124   2.28298   2.28657
 Alpha virt. eigenvalues --    2.30517   2.33512   2.35073   2.37586   2.39163
 Alpha virt. eigenvalues --    2.43939   2.44288   2.45570   2.48780   2.51063
 Alpha virt. eigenvalues --    2.51897   2.53206   2.55432   2.55842   2.56754
 Alpha virt. eigenvalues --    2.58841   2.60147   2.61821   2.62324   2.64481
 Alpha virt. eigenvalues --    2.66406   2.68365   2.69405   2.69909   2.70203
 Alpha virt. eigenvalues --    2.71843   2.73570   2.74268   2.76538   2.78186
 Alpha virt. eigenvalues --    2.79847   2.82233   2.83342   2.84564   2.85359
 Alpha virt. eigenvalues --    2.86456   2.88879   2.89022   2.90555   2.92908
 Alpha virt. eigenvalues --    2.95985   2.97122   3.01006   3.04872   3.06813
 Alpha virt. eigenvalues --    3.10096   3.14214   3.16439   3.17123   3.19373
 Alpha virt. eigenvalues --    3.22210   3.24663   3.25677   3.34049   3.34611
 Alpha virt. eigenvalues --    3.36673   3.39973   3.41299   3.42008   3.42781
 Alpha virt. eigenvalues --    3.44637   3.45345   3.45990   3.46792   3.51435
 Alpha virt. eigenvalues --    3.53709   3.97819   3.99714   4.05121   4.10184
 Alpha virt. eigenvalues --    4.24135   4.32953   4.35163   4.41879   4.44963
 Alpha virt. eigenvalues --    4.51517   4.55993   4.58086   4.69227   4.72003
          Condensed to atoms (all electrons):
              1          2          3          4          5          6
     1  C    5.167536   0.343155  -0.079261  -0.124837   0.005954   0.000080
     2  C    0.343155   4.369893   0.579234   0.258461  -0.033270  -0.000972
     3  O   -0.079261   0.579234   8.070127  -0.097565   0.001741   0.018323
     4  N   -0.124837   0.258461  -0.097565   7.170910   0.214012  -0.022978
     5  C    0.005954  -0.033270   0.001741   0.214012   5.099245   0.322418
     6  C    0.000080  -0.000972   0.018323  -0.022978   0.322418   4.348334
     7  O   -0.000011  -0.000019  -0.002847   0.001820  -0.075004   0.570663
     8  N   -0.000034  -0.000802  -0.005401   0.005920  -0.111076   0.261969
     9  C   -0.000088   0.000856   0.000179  -0.007159  -0.001453  -0.020964
    10  C    0.000000  -0.000086  -0.000100  -0.000174   0.005644  -0.029416
    11  H    0.368824  -0.022838   0.004795   0.004446  -0.000125  -0.000002
    12  H    0.357286  -0.022076   0.001986   0.003454   0.000026  -0.000014
    13  H    0.363755  -0.019408   0.000775   0.001459  -0.000265   0.000001
    14  H   -0.000164   0.004725   0.000575  -0.042736   0.359243  -0.026048
    15  H   -0.000039  -0.002218   0.001527  -0.039863   0.369103  -0.028655
    16  H   -0.000068  -0.000986  -0.000591   0.002080   0.004562  -0.006663
    17  H    0.000000   0.000072   0.000029   0.000388  -0.000515   0.002021
    18  H    0.000261   0.002140   0.002436  -0.001898   0.000617  -0.001163
    19  H    0.000000   0.000000  -0.000003   0.000000  -0.000188   0.002475
    20  H    0.000000  -0.000006  -0.000027  -0.000010   0.001018  -0.004248
    21  H    0.000003   0.000013   0.000376  -0.000011  -0.000053   0.000090
    22  C    0.000970  -0.021747   0.002401   0.241120  -0.033955   0.002875
    23  H    0.007314  -0.007954   0.000152  -0.030143   0.002880  -0.000114
    24  H   -0.000335   0.001889  -0.000042  -0.038262  -0.001062   0.000115
    25  C   -0.001019  -0.000502  -0.000039  -0.051785  -0.002842  -0.000047
    26  H   -0.000444   0.000961  -0.000022   0.003364  -0.000034   0.000032
    27  H    0.000055  -0.000072   0.000002   0.000632   0.000501  -0.000219
    28  O   -0.000004   0.000014   0.000000   0.001961  -0.000004   0.000000
    29  C    0.000000  -0.000002   0.000000  -0.000124   0.000000   0.000000
    30  H    0.000000   0.000000   0.000000   0.000001   0.000000   0.000000
    31  H    0.000000   0.000000   0.000000   0.000011  -0.000002   0.000000
    32  H   -0.000001   0.000000   0.000000   0.000008   0.000000   0.000000
              7          8          9         10         11         12
     1  C   -0.000011  -0.000034  -0.000088   0.000000   0.368824   0.357286
     2  C   -0.000019  -0.000802   0.000856  -0.000086  -0.022838  -0.022076
     3  O   -0.002847  -0.005401   0.000179  -0.000100   0.004795   0.001986
     4  N    0.001820   0.005920  -0.007159  -0.000174   0.004446   0.003454
     5  C   -0.075004  -0.111076  -0.001453   0.005644  -0.000125   0.000026
     6  C    0.570663   0.261969  -0.020964  -0.029416  -0.000002  -0.000014
     7  O    8.096530  -0.093410   0.003026  -0.014069   0.000000   0.000000
     8  N   -0.093410   7.013761   0.296591   0.300839   0.000002   0.000006
     9  C    0.003026   0.296591   4.807165  -0.052700  -0.000007   0.000011
    10  C   -0.014069   0.300839  -0.052700   4.817363   0.000000   0.000000
    11  H    0.000000   0.000002  -0.000007   0.000000   0.541858  -0.023446
    12  H    0.000000   0.000006   0.000011   0.000000  -0.023446   0.591470
    13  H    0.000000  -0.000001   0.000004   0.000000  -0.021170  -0.029979
    14  H    0.001100   0.001856  -0.000362  -0.000094   0.000003  -0.000006
    15  H    0.008617   0.005171  -0.000013  -0.000162  -0.000002  -0.000004
    16  H    0.000063  -0.030334   0.382849   0.004532   0.000000   0.000066
    17  H   -0.000059  -0.041758   0.383265  -0.004865   0.000000  -0.000002
    18  H   -0.000021  -0.046503   0.379055  -0.000210   0.000011  -0.000068
    19  H    0.000706  -0.042929  -0.003030   0.381242   0.000000   0.000000
    20  H    0.025240  -0.035188   0.004690   0.382590   0.000000   0.000000
    21  H    0.000747  -0.048242  -0.001517   0.388418   0.000000   0.000000
    22  C   -0.000042  -0.000130   0.000269   0.000003   0.000377  -0.002188
    23  H    0.000001   0.000005  -0.000032   0.000000  -0.000014  -0.001917
    24  H   -0.000002   0.000002  -0.000027   0.000000  -0.000014   0.000216
    25  C   -0.000001   0.000008  -0.000410   0.000000   0.000013  -0.000088
    26  H    0.000000  -0.000002  -0.000077   0.000000  -0.000029   0.002806
    27  H    0.000001   0.000019  -0.000827  -0.000001   0.000001  -0.000074
    28  O    0.000000   0.000000   0.000005   0.000000   0.000000  -0.000049
    29  C    0.000000   0.000000   0.000001   0.000000   0.000000  -0.000003
    30  H    0.000000   0.000000   0.000000   0.000000   0.000000   0.000000
    31  H    0.000000   0.000000  -0.000002   0.000000   0.000000   0.000000
    32  H    0.000000   0.000000   0.000000   0.000000   0.000000   0.000003
             13         14         15         16         17         18
     1  C    0.363755  -0.000164  -0.000039  -0.000068   0.000000   0.000261
     2  C   -0.019408   0.004725  -0.002218  -0.000986   0.000072   0.002140
     3  O    0.000775   0.000575   0.001527  -0.000591   0.000029   0.002436
     4  N    0.001459  -0.042736  -0.039863   0.002080   0.000388  -0.001898
     5  C   -0.000265   0.359243   0.369103   0.004562  -0.000515   0.000617
     6  C    0.000001  -0.026048  -0.028655  -0.006663   0.002021  -0.001163
     7  O    0.000000   0.001100   0.008617   0.000063  -0.000059  -0.000021
     8  N   -0.000001   0.001856   0.005171  -0.030334  -0.041758  -0.046503
     9  C    0.000004  -0.000362  -0.000013   0.382849   0.383265   0.379055
    10  C    0.000000  -0.000094  -0.000162   0.004532  -0.004865  -0.000210
    11  H   -0.021170   0.000003  -0.000002   0.000000   0.000000   0.000011
    12  H   -0.029979  -0.000006  -0.000004   0.000066  -0.000002  -0.000068
    13  H    0.566252  -0.000007   0.000037  -0.000001   0.000000   0.000004
    14  H   -0.000007   0.615271  -0.032961  -0.001043  -0.000041   0.000104
    15  H    0.000037  -0.032961   0.568314   0.000172   0.000006  -0.000012
    16  H   -0.000001  -0.001043   0.000172   0.587366  -0.026468  -0.035087
    17  H    0.000000  -0.000041   0.000006  -0.026468   0.620930  -0.046851
    18  H    0.000004   0.000104  -0.000012  -0.035087  -0.046851   0.621678
    19  H    0.000000   0.000007   0.000002   0.000105   0.007080  -0.001596
    20  H    0.000000  -0.000049  -0.000025  -0.000238   0.000078  -0.000171
    21  H    0.000000  -0.000003   0.000006  -0.000096  -0.002128   0.006643
    22  C   -0.002519   0.000315  -0.004344  -0.001967   0.000013  -0.000058
    23  H    0.001914   0.000242   0.000181   0.000039   0.000000   0.000000
    24  H    0.000232  -0.003106   0.004549   0.000093   0.000001  -0.000003
    25  C    0.000029   0.000008  -0.000314   0.001179  -0.000025   0.000052
    26  H    0.000050  -0.000241  -0.000001   0.001003   0.000010   0.000013
    27  H   -0.000005   0.003792   0.000070   0.002991   0.000060  -0.000030
    28  O   -0.000002  -0.000143   0.000004  -0.000017   0.000000   0.000000
    29  C    0.000000   0.000002   0.000000  -0.000003   0.000000   0.000000
    30  H    0.000000   0.000000   0.000000   0.000000   0.000000   0.000000
    31  H    0.000000   0.000003   0.000000   0.000008   0.000000   0.000000
    32  H    0.000000   0.000000   0.000000   0.000002   0.000000   0.000000
             19         20         21         22         23         24
     1  C    0.000000   0.000000   0.000003   0.000970   0.007314  -0.000335
     2  C    0.000000  -0.000006   0.000013  -0.021747  -0.007954   0.001889
     3  O   -0.000003  -0.000027   0.000376   0.002401   0.000152  -0.000042
     4  N    0.000000  -0.000010  -0.000011   0.241120  -0.030143  -0.038262
     5  C   -0.000188   0.001018  -0.000053  -0.033955   0.002880  -0.001062
     6  C    0.002475  -0.004248   0.000090   0.002875  -0.000114   0.000115
     7  O    0.000706   0.025240   0.000747  -0.000042   0.000001  -0.000002
     8  N   -0.042929  -0.035188  -0.048242  -0.000130   0.000005   0.000002
     9  C   -0.003030   0.004690  -0.001517   0.000269  -0.000032  -0.000027
    10  C    0.381242   0.382590   0.388418   0.000003   0.000000   0.000000
    11  H    0.000000   0.000000   0.000000   0.000377  -0.000014  -0.000014
    12  H    0.000000   0.000000   0.000000  -0.002188  -0.001917   0.000216
    13  H    0.000000   0.000000   0.000000  -0.002519   0.001914   0.000232
    14  H    0.000007  -0.000049  -0.000003   0.000315   0.000242  -0.003106
    15  H    0.000002  -0.000025   0.000006  -0.004344   0.000181   0.004549
    16  H    0.000105  -0.000238  -0.000096  -0.001967   0.000039   0.000093
    17  H    0.007080   0.000078  -0.002128   0.000013   0.000000   0.000001
    18  H   -0.001596  -0.000171   0.006643  -0.000058   0.000000  -0.000003
    19  H    0.624262  -0.023490  -0.045454   0.000000   0.000000   0.000000
    20  H   -0.023490   0.516580  -0.026139   0.000000   0.000000   0.000000
    21  H   -0.045454  -0.026139   0.609893   0.000000   0.000000   0.000000
    22  C    0.000000   0.000000   0.000000   4.896043   0.377422   0.379323
    23  H    0.000000   0.000000   0.000000   0.377422   0.591856  -0.031145
    24  H    0.000000   0.000000   0.000000   0.379323  -0.031145   0.604112
    25  C    0.000000   0.000000   0.000000   0.361178  -0.041178  -0.049432
    26  H    0.000000   0.000000   0.000000  -0.038782  -0.008938   0.006762
    27  H    0.000000   0.000000   0.000000  -0.038657   0.006543  -0.008216
    28  O    0.000000   0.000000   0.000000  -0.040360   0.005320   0.006150
    29  C    0.000000   0.000000   0.000000   0.004545  -0.000086  -0.000125
    30  H    0.000000   0.000000   0.000000  -0.000256   0.000006   0.000010
    31  H    0.000000   0.000000   0.000000   0.000030   0.000049  -0.000057
    32  H    0.000000   0.000000   0.000000   0.000027  -0.000067   0.000048
             25         26         27         28         29         30
     1  C   -0.001019  -0.000444   0.000055  -0.000004   0.000000   0.000000
     2  C   -0.000502   0.000961  -0.000072   0.000014  -0.000002   0.000000
     3  O   -0.000039  -0.000022   0.000002   0.000000   0.000000   0.000000
     4  N   -0.051785   0.003364   0.000632   0.001961  -0.000124   0.000001
     5  C   -0.002842  -0.000034   0.000501  -0.000004   0.000000   0.000000
     6  C   -0.000047   0.000032  -0.000219   0.000000   0.000000   0.000000
     7  O   -0.000001   0.000000   0.000001   0.000000   0.000000   0.000000
     8  N    0.000008  -0.000002   0.000019   0.000000   0.000000   0.000000
     9  C   -0.000410  -0.000077  -0.000827   0.000005   0.000001   0.000000
    10  C    0.000000   0.000000  -0.000001   0.000000   0.000000   0.000000
    11  H    0.000013  -0.000029   0.000001   0.000000   0.000000   0.000000
    12  H   -0.000088   0.002806  -0.000074  -0.000049  -0.000003   0.000000
    13  H    0.000029   0.000050  -0.000005  -0.000002   0.000000   0.000000
    14  H    0.000008  -0.000241   0.003792  -0.000143   0.000002   0.000000
    15  H   -0.000314  -0.000001   0.000070   0.000004   0.000000   0.000000
    16  H    0.001179   0.001003   0.002991  -0.000017  -0.000003   0.000000
    17  H   -0.000025   0.000010   0.000060   0.000000   0.000000   0.000000
    18  H    0.000052   0.000013  -0.000030   0.000000   0.000000   0.000000
    19  H    0.000000   0.000000   0.000000   0.000000   0.000000   0.000000
    20  H    0.000000   0.000000   0.000000   0.000000   0.000000   0.000000
    21  H    0.000000   0.000000   0.000000   0.000000   0.000000   0.000000
    22  C    0.361178  -0.038782  -0.038657  -0.040360   0.004545  -0.000256
    23  H   -0.041178  -0.008938   0.006543   0.005320  -0.000086   0.000006
    24  H   -0.049432   0.006762  -0.008216   0.006150  -0.000125   0.000010
    25  C    4.778155   0.360474   0.364730   0.231869  -0.034290   0.005302
    26  H    0.360474   0.685955  -0.063051  -0.039263  -0.006069  -0.000114
    27  H    0.364730  -0.063051   0.682733  -0.038777  -0.006022  -0.000110
    28  O    0.231869  -0.039263  -0.038777   8.210292   0.257467  -0.032553
    29  C   -0.034290  -0.006069  -0.006022   0.257467   4.710002   0.395342
    30  H    0.005302  -0.000114  -0.000110  -0.032553   0.395342   0.579274
    31  H   -0.009031  -0.002669   0.013222  -0.037351   0.371233  -0.034144
    32  H   -0.008855   0.012990  -0.002723  -0.037423   0.371065  -0.034542
             31         32
     1  C    0.000000  -0.000001
     2  C    0.000000   0.000000
     3  O    0.000000   0.000000
     4  N    0.000011   0.000008
     5  C   -0.000002   0.000000
     6  C    0.000000   0.000000
     7  O    0.000000   0.000000
     8  N    0.000000   0.000000
     9  C   -0.000002   0.000000
    10  C    0.000000   0.000000
    11  H    0.000000   0.000000
    12  H    0.000000   0.000003
    13  H    0.000000   0.000000
    14  H    0.000003   0.000000
    15  H    0.000000   0.000000
    16  H    0.000008   0.000002
    17  H    0.000000   0.000000
    18  H    0.000000   0.000000
    19  H    0.000000   0.000000
    20  H    0.000000   0.000000
    21  H    0.000000   0.000000
    22  C    0.000030   0.000027
    23  H    0.000049  -0.000067
    24  H   -0.000057   0.000048
    25  C   -0.009031  -0.008855
    26  H   -0.002669   0.012990
    27  H    0.013222  -0.002723
    28  O   -0.037351  -0.037423
    29  C    0.371233   0.371065
    30  H   -0.034144  -0.034542
    31  H    0.654685  -0.051813
    32  H   -0.051813   0.656374
 Mulliken atomic charges:
              1
     1  C   -0.408887
     2  C    0.571544
     3  O   -0.498759
     4  N   -0.452503
     5  C   -0.127115
     6  C    0.612108
     7  O   -0.523031
     8  N   -0.430338
     9  C   -0.169296
    10  C   -0.178752
    11  H    0.147319
    12  H    0.122585
    13  H    0.138844
    14  H    0.119758
    15  H    0.150856
    16  H    0.116455
    17  H    0.108759
    18  H    0.120658
    19  H    0.100811
    20  H    0.159393
    21  H    0.117456
    22  C   -0.081906
    23  H    0.127665
    24  H    0.128324
    25  C    0.096858
    26  H    0.085314
    27  H    0.083434
    28  O   -0.487135
    29  C   -0.062934
    30  H    0.121783
    31  H    0.095827
    32  H    0.094906
 Sum of Mulliken atomic charges =   0.00000
 Mulliken charges with hydrogens summed into heavy atoms:
              1
     1  C   -0.000139
     2  C    0.571544
     3  O   -0.498759
     4  N   -0.452503
     5  C    0.143499
     6  C    0.612108
     7  O   -0.523031
     8  N   -0.430338
     9  C    0.176575
    10  C    0.198907
    22  C    0.174084
    25  C    0.265606
    28  O   -0.487135
    29  C    0.249583
 Sum of Mulliken charges with hydrogens summed into heavy atoms =   0.00000
 Electronic spatial extent (au):  <R**2>=           3658.9472
 Charge=              0.0000 electrons
 Dipole moment (field-independent basis, Debye):
    X=              5.1054    Y=             -1.9324    Z=             -2.9530  Tot=              6.2064
 Quadrupole moment (field-independent basis, Debye-Ang):
   XX=            -91.9272   YY=            -81.5210   ZZ=            -85.6681
   XY=              3.2903   XZ=              5.9002   YZ=              1.9985
 Traceless Quadrupole moment (field-independent basis, Debye-Ang):
   XX=             -5.5551   YY=              4.8511   ZZ=              0.7040
   XY=              3.2903   XZ=              5.9002   YZ=              1.9985
 Octapole moment (field-independent basis, Debye-Ang**2):
  XXX=             38.1976  YYY=              3.8140  ZZZ=             -2.5536  XYY=             17.8873
  XXY=            -31.2492  XXZ=            -40.2698  XZZ=             10.6918  YZZ=              3.0657
  YYZ=             -1.7371  XYZ=             -3.7112
 Hexadecapole moment (field-independent basis, Debye-Ang**3):
 XXXX=          -3000.2136 YYYY=           -993.5433 ZZZZ=           -537.9115 XXXY=            -76.8318
 XXXZ=             36.5901 YYYX=             11.6210 YYYZ=             -3.6941 ZZZX=             22.3745
 ZZZY=             -0.1978 XXYY=           -663.4528 XXZZ=           -655.0209 YYZZ=           -250.9435
 XXYZ=             25.7250 YYXZ=              2.2781 ZZXY=             -3.8594
 N-N= 9.785386595119D+02 E-N=-3.562663210731D+03  KE= 6.826148878036D+02
 Calling FoFJK, ICntrl=      2127 FMM=F ISym2X=0 I1Cent= 0 IOpClX= 0 NMat=1 NMatS=1 NMatT=0.
 ***** Axes restored to original set *****
 -------------------------------------------------------------------
 Center     Atomic                   Forces (Hartrees/Bohr)
 Number     Number              X              Y              Z
 -------------------------------------------------------------------
      1        6           0.000001336    0.000000864    0.000007600
      2        6          -0.000081258   -0.000233187   -0.000316109
      3        8           0.000003297    0.000001858    0.000003917
      4        7           0.000049470    0.000500222    0.000553788
      5        6           0.000154999   -0.000577946   -0.000395066
      6        6          -0.000127337    0.000302501    0.000164289
      7        8          -0.000000654   -0.000004600   -0.000002771
      8        7           0.000001952   -0.000003388    0.000003410
      9        6          -0.000000217    0.000008204   -0.000004105
     10        6           0.000000191    0.000001009   -0.000004685
     11        1           0.000001074    0.000003928    0.000007742
     12        1           0.000000295    0.000002855    0.000004926
     13        1           0.000000158   -0.000000014    0.000007986
     14        1           0.000000467   -0.000000489   -0.000000889
     15        1           0.000000179   -0.000006132   -0.000000411
     16        1          -0.000002932   -0.000000436   -0.000007622
     17        1          -0.000000589    0.000004487   -0.000005485
     18        1           0.000000314    0.000002579   -0.000000630
     19        1           0.000001151    0.000002984   -0.000006511
     20        1           0.000000442    0.000000846   -0.000003228
     21        1           0.000000513    0.000003485   -0.000001894
     22        6          -0.000003868   -0.000000400   -0.000000472
     23        1          -0.000000200   -0.000002247    0.000004764
     24        1           0.000000604   -0.000004902    0.000003400
     25        6           0.000009717   -0.000000557    0.000004308
     26        1          -0.000001021    0.000002248   -0.000000820
     27        1          -0.000000916   -0.000001518   -0.000002593
     28        8          -0.000006149   -0.000001402   -0.000003109
     29        6          -0.000000691   -0.000001907   -0.000001967
     30        1          -0.000000330   -0.000000899   -0.000001689
     31        1           0.000000014   -0.000000800   -0.000004720
     32        1          -0.000000011    0.000002753   -0.000001354
 -------------------------------------------------------------------
 Cartesian Forces:  Max     0.000577946 RMS     0.000119463

 GradGradGradGradGradGradGradGradGradGradGradGradGradGradGradGradGradGrad
 Berny optimization.
 Internal  Forces:  Max     0.000356074 RMS     0.000047792
 Search for a local minimum.
 Step number   1 out of a maximum of  155 on scan point     1 out of    37
 All quantities printed in internal units (Hartrees-Bohrs-Radians)
 Mixed Optimization -- En-DIIS/RFO-DIIS
 Second derivative matrix not updated -- first step.
 ITU=  0
     Eigenvalues ---    0.00369   0.00459   0.00729   0.00845   0.00938
     Eigenvalues ---    0.01027   0.01062   0.01152   0.01378   0.01509
     Eigenvalues ---    0.01550   0.01953   0.02050   0.02349   0.04094
     Eigenvalues ---    0.05376   0.05494   0.05885   0.06190   0.06856
     Eigenvalues ---    0.07300   0.07479   0.07480   0.07588   0.07673
     Eigenvalues ---    0.09491   0.10040   0.10514   0.11048   0.11089
     Eigenvalues ---    0.11808   0.12936   0.13603   0.16000   0.16000
     Eigenvalues ---    0.16000   0.16000   0.16000   0.16000   0.16000
     Eigenvalues ---    0.16000   0.16000   0.16000   0.16000   0.16000
     Eigenvalues ---    0.21924   0.21947   0.22149   0.23035   0.24054
     Eigenvalues ---    0.24104   0.24518   0.24768   0.24992   0.25000
     Eigenvalues ---    0.25000   0.25000   0.28294   0.29426   0.30062
     Eigenvalues ---    0.33258   0.33299   0.33578   0.33579   0.33771
     Eigenvalues ---    0.33872   0.34081   0.34115   0.34119   0.34144
     Eigenvalues ---    0.34181   0.34301   0.34390   0.34575   0.34800
     Eigenvalues ---    0.34859   0.35044   0.35068   0.35573   0.36463
     Eigenvalues ---    0.37341   0.38207   0.43402   0.43885   0.49054
     Eigenvalues ---    0.50425   0.92976   0.930931000.000001000.00000
     Eigenvalues --- 1000.000001000.000001000.000001000.000001000.00000
     Eigenvalues --- 1000.000001000.000001000.000001000.000001000.00000
     Eigenvalues --- 1000.000001000.000001000.000001000.000001000.00000
     Eigenvalues --- 1000.000001000.000001000.000001000.000001000.00000
     Eigenvalues --- 1000.000001000.000001000.000001000.000001000.00000
     Eigenvalues --- 1000.000001000.000001000.000001000.000001000.00000
     Eigenvalues --- 1000.000001000.000001000.000001000.000001000.00000
     Eigenvalues --- 1000.000001000.000001000.000001000.000001000.00000
     Eigenvalues --- 1000.000001000.000001000.000001000.000001000.00000
     Eigenvalues --- 1000.000001000.000001000.000001000.000001000.00000
     Eigenvalues --- 1000.000001000.000001000.000001000.000001000.00000
 RFO step:  Lambda= 0.00000000D+00 EMin= 3.69420293D-03
 Linear search not attempted -- first point.
 Iteration  1 RMS(Cart)=  0.00016690 RMS(Int)=  0.00000001
 Iteration  2 RMS(Cart)=  0.00000001 RMS(Int)=  0.00000000
 Iteration  1 RMS(Cart)=  0.00000000 RMS(Int)=  0.00000000
 Variable       Old X    -DE/DX   Delta X   Delta X   Delta X     New X
                                 (Linear)    (Quad)   (Total)
    R1        2.87840   0.00000   0.00000   0.00000   0.00000   2.87841
    R2        2.05905   0.00000   0.00000   0.00000   0.00000   2.05905
    R3        2.06676   0.00000   0.00000   0.00000   0.00000   2.06676
    R4        2.07026   0.00000   0.00000   0.00000   0.00000   2.07026
    R5        2.31539   0.00000   0.00000   0.00000   0.00000   2.31539
    R6        2.60832   0.00001   0.00000   0.00001   0.00001   2.60833
    R7        2.78055   0.00001   0.00000   0.00002   0.00002   2.78057
    R8        2.76663   0.00000   0.00000   0.00000   0.00000   2.76663
    R9        2.91501   0.00000   0.00000   0.00001   0.00001   2.91502
   R10        2.07193   0.00000   0.00000  -0.00001  -0.00001   2.07193
   R11        2.06825   0.00000   0.00000   0.00000   0.00000   2.06825
   R12        2.31591   0.00000   0.00000   0.00000   0.00000   2.31591
   R13        2.59439   0.00000   0.00000   0.00000   0.00000   2.59440
   R14        2.74065   0.00000   0.00000   0.00000   0.00000   2.74066
   R15        2.75336   0.00000   0.00000   0.00000   0.00000   2.75335
   R16        2.05565   0.00000   0.00000  -0.00001  -0.00001   2.05563
   R17        2.07088   0.00000   0.00000   0.00000   0.00000   2.07088
   R18        2.07719   0.00000   0.00000  -0.00001  -0.00001   2.07718
   R19        2.07130   0.00000   0.00000   0.00000   0.00000   2.07130
   R20        2.05604   0.00000   0.00000   0.00000   0.00000   2.05604
   R21        2.07546   0.00000   0.00000   0.00000   0.00000   2.07546
   R22        2.06001   0.00000   0.00000   0.00000   0.00000   2.06001
   R23        2.07137   0.00000   0.00000   0.00001   0.00001   2.07137
   R24        2.89124   0.00000   0.00000   0.00000   0.00000   2.89124
   R25        2.08530   0.00000   0.00000   0.00000   0.00000   2.08530
   R26        2.08601   0.00000   0.00000   0.00000   0.00000   2.08601
   R27        2.66593  -0.00001   0.00000  -0.00002  -0.00002   2.66591
   R28        2.67176   0.00000   0.00000   0.00000   0.00000   2.67176
   R29        2.06370   0.00000   0.00000   0.00000   0.00000   2.06370
   R30        2.08046   0.00000   0.00000   0.00000   0.00000   2.08046
   R31        2.08048   0.00000   0.00000   0.00000   0.00000   2.08048
    A1        1.86845   0.00000   0.00000   0.00000   0.00000   1.86846
    A2        1.97373   0.00000   0.00000   0.00000   0.00000   1.97373
    A3        1.93716   0.00000   0.00000   0.00000   0.00000   1.93716
    A4        1.91023   0.00000   0.00000  -0.00001  -0.00001   1.91022
    A5        1.88946   0.00000   0.00000   0.00000   0.00000   1.88945
    A6        1.88326   0.00000   0.00000   0.00000   0.00000   1.88326
    A7        2.10832   0.00000   0.00000   0.00000   0.00000   2.10832
    A8        2.05846   0.00000   0.00000  -0.00001  -0.00001   2.05845
    A9        2.11607   0.00000   0.00000   0.00001   0.00001   2.11608
   A10        2.06824  -0.00002   0.00000   0.00002   0.00002   2.06826
   A11        2.15100   0.00007   0.00000  -0.00001  -0.00001   2.15099
   A12        2.00901  -0.00001   0.00000   0.00000   0.00000   2.00901
   A13        2.10132   0.00000   0.00000   0.00001   0.00001   2.10133
   A14        1.86928   0.00001   0.00000  -0.00001  -0.00001   1.86927
   A15        1.92244  -0.00002   0.00000  -0.00001  -0.00001   1.92242
   A16        1.87751   0.00015   0.00000   0.00003   0.00003   1.87754
   A17        1.80510  -0.00014   0.00000  -0.00001  -0.00001   1.80510
   A18        1.87790   0.00000   0.00000  -0.00001  -0.00001   1.87788
   A19        2.04226  -0.00001   0.00000  -0.00003  -0.00003   2.04223
   A20        2.09894   0.00001   0.00000   0.00006   0.00006   2.09899
   A21        2.13270  -0.00001   0.00000  -0.00004  -0.00004   2.13266
   A22        2.18750   0.00002   0.00000   0.00006   0.00006   2.18756
   A23        2.05709  -0.00001   0.00000  -0.00003  -0.00003   2.05706
   A24        2.00991  -0.00001   0.00000  -0.00005  -0.00005   2.00987
   A25        1.93964   0.00001   0.00000   0.00004   0.00004   1.93968
   A26        1.90550   0.00000   0.00000  -0.00002  -0.00002   1.90548
   A27        1.95023   0.00000   0.00000   0.00000   0.00000   1.95023
   A28        1.88780   0.00000   0.00000  -0.00001  -0.00001   1.88778
   A29        1.89106   0.00000   0.00000   0.00001   0.00001   1.89107
   A30        1.88789   0.00000   0.00000  -0.00002  -0.00002   1.88787
   A31        1.91884   0.00000   0.00000  -0.00001  -0.00001   1.91883
   A32        1.89273   0.00000   0.00000  -0.00001  -0.00001   1.89273
   A33        1.93485   0.00000   0.00000   0.00000   0.00000   1.93485
   A34        1.91714   0.00000   0.00000   0.00001   0.00001   1.91715
   A35        1.89489   0.00000   0.00000   0.00000   0.00000   1.89489
   A36        1.90540   0.00000   0.00000   0.00000   0.00000   1.90541
   A37        1.92759   0.00000   0.00000   0.00000   0.00000   1.92759
   A38        1.90631   0.00000   0.00000   0.00001   0.00001   1.90632
   A39        1.97587   0.00000   0.00000   0.00000   0.00000   1.97587
   A40        1.85692   0.00000   0.00000   0.00000   0.00000   1.85692
   A41        1.89557   0.00000   0.00000   0.00000   0.00000   1.89558
   A42        1.89758   0.00000   0.00000   0.00000   0.00000   1.89758
   A43        1.92099   0.00000   0.00000  -0.00001  -0.00001   1.92098
   A44        1.93006   0.00000   0.00000  -0.00001  -0.00001   1.93005
   A45        1.86970   0.00000   0.00000   0.00001   0.00001   1.86971
   A46        1.86926   0.00000   0.00000   0.00000   0.00000   1.86926
   A47        1.94080   0.00000   0.00000   0.00000   0.00000   1.94080
   A48        1.93383   0.00000   0.00000   0.00000   0.00000   1.93383
   A49        1.97448   0.00000   0.00000   0.00000   0.00000   1.97448
   A50        1.87121   0.00000   0.00000   0.00000   0.00000   1.87120
   A51        1.94980   0.00000   0.00000   0.00001   0.00001   1.94981
   A52        1.95038   0.00000   0.00000  -0.00001  -0.00001   1.95038
   A53        1.90062   0.00000   0.00000   0.00000   0.00000   1.90062
   A54        1.90073   0.00000   0.00000   0.00000   0.00000   1.90073
   A55        1.89010   0.00000   0.00000   0.00000   0.00000   1.89010
    D1       -0.21493   0.00000   0.00000   0.00005   0.00005  -0.21488
    D2        2.89897   0.00000   0.00000   0.00006   0.00006   2.89904
    D3       -2.32014   0.00000   0.00000   0.00005   0.00005  -2.32009
    D4        0.79376   0.00000   0.00000   0.00007   0.00007   0.79382
    D5        1.84369   0.00000   0.00000   0.00005   0.00005   1.84373
    D6       -1.32560   0.00000   0.00000   0.00006   0.00006  -1.32554
    D7        3.01520   0.00006   0.00000   0.00004   0.00004   3.01524
    D8        0.24111  -0.00005   0.00000   0.00004   0.00004   0.24115
    D9       -0.15421   0.00006   0.00000   0.00005   0.00005  -0.15416
   D10       -2.92830  -0.00005   0.00000   0.00005   0.00005  -2.92826
   D11        0.67492  -0.00036   0.00000   0.00000   0.00000   0.67492
   D12        2.82416  -0.00014   0.00000   0.00004   0.00004   2.82420
   D13       -1.42171  -0.00014   0.00000   0.00001   0.00001  -1.42170
   D14       -2.80493  -0.00024   0.00000   0.00000   0.00000  -2.80493
   D15       -0.65569  -0.00002   0.00000   0.00004   0.00004  -0.65565
   D16        1.38162  -0.00002   0.00000   0.00001   0.00001   1.38163
   D17        0.19904   0.00005   0.00000  -0.00005  -0.00005   0.19899
   D18        2.23545   0.00005   0.00000  -0.00005  -0.00005   2.23539
   D19       -1.93078   0.00005   0.00000  -0.00005  -0.00005  -1.93084
   D20       -2.58638  -0.00005   0.00000  -0.00006  -0.00006  -2.58644
   D21       -0.54997  -0.00005   0.00000  -0.00006  -0.00006  -0.55003
   D22        1.56698  -0.00005   0.00000  -0.00006  -0.00006   1.56692
   D23       -2.31554   0.00010   0.00000  -0.00010  -0.00010  -2.31564
   D24        0.96886   0.00010   0.00000   0.00000   0.00000   0.96886
   D25        1.82236  -0.00005   0.00000  -0.00013  -0.00013   1.82223
   D26       -1.17643  -0.00005   0.00000  -0.00002  -0.00002  -1.17645
   D27       -0.16170  -0.00005   0.00000  -0.00012  -0.00012  -0.16182
   D28        3.12270  -0.00005   0.00000  -0.00002  -0.00002   3.12268
   D29       -0.21202   0.00000   0.00000  -0.00019  -0.00019  -0.21221
   D30       -3.08540   0.00000   0.00000  -0.00011  -0.00011  -3.08551
   D31        3.07996   0.00000   0.00000  -0.00008  -0.00008   3.07988
   D32        0.20659   0.00000   0.00000   0.00000   0.00000   0.20658
   D33        0.45670   0.00000   0.00000   0.00011   0.00011   0.45682
   D34        2.53760   0.00000   0.00000   0.00011   0.00011   2.53770
   D35       -1.65801   0.00000   0.00000   0.00007   0.00007  -1.65794
   D36       -2.94671   0.00000   0.00000   0.00003   0.00003  -2.94668
   D37       -0.86582   0.00000   0.00000   0.00003   0.00003  -0.86579
   D38        1.22175   0.00000   0.00000   0.00000   0.00000   1.22175
   D39       -2.36876   0.00000   0.00000  -0.00003  -0.00003  -2.36879
   D40       -0.27242   0.00000   0.00000  -0.00002  -0.00002  -0.27245
   D41        1.81915   0.00000   0.00000  -0.00002  -0.00002   1.81912
   D42        1.01402   0.00000   0.00000   0.00003   0.00003   1.01404
   D43        3.11035   0.00000   0.00000   0.00003   0.00003   3.11039
   D44       -1.08126   0.00000   0.00000   0.00003   0.00003  -1.08123
   D45        1.06606   0.00000   0.00000  -0.00006  -0.00006   1.06600
   D46       -0.99581   0.00000   0.00000  -0.00005  -0.00005  -0.99586
   D47       -3.10487   0.00000   0.00000  -0.00006  -0.00006  -3.10493
   D48       -1.08156   0.00000   0.00000  -0.00006  -0.00006  -1.08162
   D49        3.13976   0.00000   0.00000  -0.00005  -0.00005   3.13971
   D50        1.03070   0.00000   0.00000  -0.00006  -0.00006   1.03064
   D51       -3.09526   0.00000   0.00000  -0.00006  -0.00006  -3.09532
   D52        1.12606   0.00000   0.00000  -0.00004  -0.00004   1.12601
   D53       -0.98301   0.00000   0.00000  -0.00005  -0.00005  -0.98306
   D54        3.13421   0.00000   0.00000  -0.00001  -0.00001   3.13420
   D55       -1.04930   0.00000   0.00000  -0.00001  -0.00001  -1.04932
   D56        1.02754   0.00000   0.00000  -0.00001  -0.00001   1.02753
   D57       -3.13741   0.00000   0.00000  -0.00001  -0.00001  -3.13742
   D58       -1.05643   0.00000   0.00000  -0.00001  -0.00001  -1.05644
   D59        1.06433   0.00000   0.00000   0.00000   0.00000   1.06432
         Item               Value     Threshold  Converged?
 Maximum Force            0.000016     0.000450     YES
 RMS     Force            0.000003     0.000300     YES
 Maximum Displacement     0.000821     0.001800     YES
 RMS     Displacement     0.000167     0.001200     YES
 Predicted change in Energy=-3.340373D-09
 Optimization completed.
    -- Stationary point found.
                           ----------------------------
                           !   Optimized Parameters   !
                           ! (Angstroms and Degrees)  !
 --------------------------                            --------------------------
 ! Name  Definition              Value          Derivative Info.                !
 --------------------------------------------------------------------------------
 ! R1    R(1,2)                  1.5232         -DE/DX =    0.0                 !
 ! R2    R(1,11)                 1.0896         -DE/DX =    0.0                 !
 ! R3    R(1,12)                 1.0937         -DE/DX =    0.0                 !
 ! R4    R(1,13)                 1.0955         -DE/DX =    0.0                 !
 ! R5    R(2,3)                  1.2253         -DE/DX =    0.0                 !
 ! R6    R(2,4)                  1.3803         -DE/DX =    0.0                 !
 ! R7    R(4,5)                  1.4714         -DE/DX =    0.0                 !
 ! R8    R(4,22)                 1.464          -DE/DX =    0.0                 !
 ! R9    R(5,6)                  1.5426         -DE/DX =    0.0                 !
 ! R10   R(5,14)                 1.0964         -DE/DX =    0.0                 !
 ! R11   R(5,15)                 1.0945         -DE/DX =    0.0                 !
 ! R12   R(6,7)                  1.2255         -DE/DX =    0.0                 !
 ! R13   R(6,8)                  1.3729         -DE/DX =    0.0                 !
 ! R14   R(8,9)                  1.4503         -DE/DX =    0.0                 !
 ! R15   R(8,10)                 1.457          -DE/DX =    0.0                 !
 ! R16   R(9,16)                 1.0878         -DE/DX =    0.0                 !
 ! R17   R(9,17)                 1.0959         -DE/DX =    0.0                 !
 ! R18   R(9,18)                 1.0992         -DE/DX =    0.0                 !
 ! R19   R(10,19)                1.0961         -DE/DX =    0.0                 !
 ! R20   R(10,20)                1.088          -DE/DX =    0.0                 !
 ! R21   R(10,21)                1.0983         -DE/DX =    0.0                 !
 ! R22   R(22,23)                1.0901         -DE/DX =    0.0                 !
 ! R23   R(22,24)                1.0961         -DE/DX =    0.0                 !
 ! R24   R(22,25)                1.53           -DE/DX =    0.0                 !
 ! R25   R(25,26)                1.1035         -DE/DX =    0.0                 !
 ! R26   R(25,27)                1.1039         -DE/DX =    0.0                 !
 ! R27   R(25,28)                1.4107         -DE/DX =    0.0                 !
 ! R28   R(28,29)                1.4138         -DE/DX =    0.0                 !
 ! R29   R(29,30)                1.0921         -DE/DX =    0.0                 !
 ! R30   R(29,31)                1.1009         -DE/DX =    0.0                 !
 ! R31   R(29,32)                1.1009         -DE/DX =    0.0                 !
 ! A1    A(2,1,11)             107.0544         -DE/DX =    0.0                 !
 ! A2    A(2,1,12)             113.0862         -DE/DX =    0.0                 !
 ! A3    A(2,1,13)             110.9909         -DE/DX =    0.0                 !
 ! A4    A(11,1,12)            109.4479         -DE/DX =    0.0                 !
 ! A5    A(11,1,13)            108.2578         -DE/DX =    0.0                 !
 ! A6    A(12,1,13)            107.9026         -DE/DX =    0.0                 !
 ! A7    A(1,2,3)              120.7981         -DE/DX =    0.0                 !
 ! A8    A(1,2,4)              117.9408         -DE/DX =    0.0                 !
 ! A9    A(3,2,4)              121.2416         -DE/DX =    0.0                 !
 ! A10   A(2,4,5)              118.5016         -DE/DX =    0.0                 !
 ! A11   A(2,4,22)             123.2433         -DE/DX =    0.0001              !
 ! A12   A(5,4,22)             115.1077         -DE/DX =    0.0                 !
 ! A13   A(4,5,6)              120.3965         -DE/DX =    0.0                 !
 ! A14   A(4,5,14)             107.1016         -DE/DX =    0.0                 !
 ! A15   A(4,5,15)             110.1476         -DE/DX =    0.0                 !
 ! A16   A(6,5,14)             107.5736         -DE/DX =    0.0001              !
[...]
   D20       -2.58074   0.00011  -0.00712   0.00139  -0.00574  -2.58648
   D21       -0.55009   0.00010  -0.00775   0.00093  -0.00683  -0.55692
   D22        1.57029   0.00006  -0.00792   0.00016  -0.00777   1.56252
   D23       -1.23924  -0.00365   0.00259  -0.00066   0.00193  -1.23731
   D24        2.19059  -0.00705   0.00000   0.00000   0.00000   2.19059
   D25        2.84136   0.00038   0.00146  -0.00066   0.00080   2.84216
   D26       -0.01200  -0.00302  -0.00113  -0.00001  -0.00113  -0.01313
   D27        0.88139   0.00004   0.00067  -0.00210  -0.00143   0.87996
   D28       -1.97197  -0.00336  -0.00192  -0.00145  -0.00336  -1.97533
   D29       -0.72212   0.00160   0.00342  -0.00013   0.00329  -0.71883
   D30        2.89636   0.00155   0.00483  -0.00246   0.00237   2.89872
   D31        2.70152  -0.00152   0.00050   0.00072   0.00122   2.70275
   D32        0.03682  -0.00156   0.00191  -0.00161   0.00030   0.03712
   D33        0.35582  -0.00004   0.01123  -0.00609   0.00514   0.36096
   D34        2.45890  -0.00001   0.01048  -0.00572   0.00476   2.46366
   D35       -1.73677   0.00000   0.01000  -0.00554   0.00446  -1.73231
   D36        3.03129  -0.00001   0.00978  -0.00370   0.00608   3.03737
   D37       -1.14882   0.00002   0.00903  -0.00333   0.00570  -1.14312
   D38        0.93870   0.00003   0.00855  -0.00316   0.00540   0.94410
   D39       -2.69702  -0.00005   0.00149   0.00288   0.00437  -2.69265
   D40       -0.59923  -0.00002   0.00174   0.00316   0.00490  -0.59433
   D41        1.49056  -0.00003   0.00192   0.00290   0.00483   1.49539
   D42        0.86946   0.00003   0.00247   0.00109   0.00355   0.87301
   D43        2.96726   0.00007   0.00271   0.00137   0.00408   2.97134
   D44       -1.22614   0.00005   0.00290   0.00111   0.00401  -1.22213
   D45        1.05773   0.00002   0.00363  -0.00013   0.00350   1.06123
   D46       -0.99818   0.00001   0.00371  -0.00063   0.00308  -0.99510
   D47       -3.10937   0.00001   0.00387  -0.00059   0.00327  -3.10610
   D48       -1.09394   0.00002   0.00336  -0.00072   0.00264  -1.09130
   D49        3.13333   0.00001   0.00344  -0.00122   0.00222   3.13555
   D50        1.02214   0.00001   0.00360  -0.00118   0.00242   1.02456
   D51       -3.09980  -0.00001   0.00425  -0.00154   0.00271  -3.09709
   D52        1.12748  -0.00002   0.00433  -0.00204   0.00229   1.12977
   D53       -0.98372  -0.00002   0.00449  -0.00200   0.00249  -0.98123
   D54       -3.12528  -0.00002  -0.00200   0.00063  -0.00137  -3.12664
   D55       -1.02204   0.00001  -0.00109   0.00042  -0.00067  -1.02271
   D56        1.04857   0.00001  -0.00139   0.00044  -0.00095   1.04762
   D57        3.13402   0.00003   0.00296   0.00054   0.00351   3.13752
   D58       -1.06797   0.00002   0.00295   0.00040   0.00335  -1.06462
   D59        1.05200   0.00004   0.00288   0.00073   0.00361   1.05561
         Item               Value     Threshold  Converged?
 Maximum Force            0.000494     0.000450     NO 
 RMS     Force            0.000092     0.000300     YES
 Maximum Displacement     0.060283     0.001800     NO 
 RMS     Displacement     0.015106     0.001200     NO 
 Predicted change in Energy=-6.282714D-06
 GradGradGradGradGradGradGradGradGradGradGradGradGradGradGradGradGradGrad

                          Input orientation:                          
 ---------------------------------------------------------------------
 Center     Atomic      Atomic             Coordinates (Angstroms)
 Number     Number       Type             X           Y           Z
 ---------------------------------------------------------------------
      1          6           0        1.239881    3.187624   -0.308486
      2          6           0        0.032958    2.291759   -0.023061
      3          8           0       -1.094463    2.711422   -0.210275
      4          7           0        0.297725    1.013154    0.447184
      5          6           0       -0.745518    0.045396    0.843442
      6          6           0       -2.084082   -0.106493    0.070814
      7          8           0       -2.957289    0.740440    0.101825
      8          7           0       -2.369124   -1.400050   -0.358166
      9          6           0       -1.392551   -2.319342   -0.926898
     10          6           0       -3.737479   -1.648261   -0.801871
     11          1           0        0.861511    4.045482   -0.863379
     12          1           0        2.022976    2.696622   -0.892898
     13          1           0        1.691521    3.552239    0.620884
     14          1           0       -0.253052   -0.920586    0.929019
     15          1           0       -1.098606    0.303568    1.853210
     16          1           0       -0.375299   -2.040625   -0.657599
     17          1           0       -1.576043   -3.339484   -0.569631
     18          1           0       -1.452770   -2.330067   -2.024721
     19          1           0       -3.964902   -2.710809   -0.670529
     20          1           0       -4.420673   -1.043223   -0.208712
     21          1           0       -3.878881   -1.387779   -1.859988
     22          6           0        1.653083    0.592580    0.814020
     23          1           0        2.275725    1.458939    1.036009
     24          1           0        1.612133    0.005708    1.738251
     25          6           0        2.342842   -0.241875   -0.267852
     26          1           0        2.437573    0.344434   -1.196980
     27          1           0        1.740354   -1.133723   -0.513441
     28          8           0        3.608903   -0.614965    0.232368
     29          6           0        4.364776   -1.380587   -0.684000
     30          1           0        5.318655   -1.610728   -0.204407
     31          1           0        3.859275   -2.324315   -0.942136
     32          1           0        4.558583   -0.827495   -1.615976
 ---------------------------------------------------------------------
                    Distance matrix (angstroms):
                    1          2          3          4          5
     1  C    0.000000
     2  C    1.529936   0.000000
     3  O    2.384444   1.217475   0.000000
     4  N    2.487371   1.387826   2.292281   0.000000
     5  C    3.891316   2.530414   2.887867   1.477136   0.000000
     6  C    4.695083   3.200357   2.999833   2.658621   1.552990
     7  O    4.875787   3.371018   2.729889   3.284625   2.434135
     8  N    5.837306   4.417210   4.307068   3.685678   2.483802
     9  C    6.135047   4.910320   5.090284   3.981288   3.024027
    10  C    6.957249   5.508765   5.132480   4.992607   3.811477
    11  H    1.089491   2.113807   2.456033   3.351186   4.636428
    12  H    1.093553   2.209231   3.191335   2.757966   4.208138
    13  H    1.095743   2.180437   3.026467   2.901688   4.276288
    14  H    4.542869   3.362650   3.898390   2.067576   1.087644
    15  H    4.296421   2.958671   3.171080   2.104795   1.100434
    16  H    5.483181   4.397597   4.826929   3.316484   2.596472
    17  H    7.113421   5.882051   6.080668   4.846687   3.760846
    18  H    6.375009   5.251219   5.370029   4.511282   3.790698
    19  H    7.874792   6.436442   6.152385   5.769503   4.500356
    20  H    7.067666   5.566993   5.016078   5.188657   3.974782
    21  H    7.038692   5.675895   5.222833   5.341493   4.379553
    22  C    2.857448   2.492532   3.617689   1.465758   2.460399
    23  H    2.422600   2.616337   3.805273   2.111380   3.341122
    24  H    3.801617   3.289687   4.294567   2.099874   2.522058
    25  C    3.602727   3.437264   4.532146   2.503773   3.294763
    26  H    3.210548   3.309431   4.364802   2.780182   3.792732
    27  H    4.355057   3.858704   4.786777   2.759177   3.067737
    28  O    4.512702   4.615373   5.777753   3.696054   4.446399
    29  C    5.547480   5.717308   6.839023   4.852883   5.521015
    30  H    6.298525   6.572737   7.733634   5.702549   6.372984
    31  H    6.135488   6.065768   7.101675   5.074795   5.477950
    32  H    5.370707   5.722621   6.815926   5.079323   5.911358
                    6          7          8          9         10
     6  C    0.000000
     7  O    1.216860   0.000000
     8  N    1.392323   2.266987   0.000000
     9  C    2.523954   3.587331   1.456794   0.000000
    10  C    2.423293   2.670441   1.459753   2.442267   0.000000
    11  H    5.175725   5.141805   6.351855   6.752467   7.319372
    12  H    5.064989   5.442349   6.029859   6.068514   7.215894
    13  H    5.286215   5.457753   6.478622   6.810476   7.651370
    14  H    2.179893   3.279658   2.522794   2.588321   3.958121
    15  H    2.077557   2.590928   3.067036   3.833413   4.221698
    16  H    2.681677   3.870106   2.115498   1.088580   3.388069
    17  H    3.334742   4.359412   2.105967   1.096358   2.754265
    18  H    3.119952   4.026635   2.117083   1.099526   2.679574
    19  H    3.296898   3.677354   2.088580   2.614567   1.094523
    20  H    2.532836   2.327957   2.087706   3.363599   1.088422
    21  H    2.931040   3.037657   2.129551   2.814303   1.098844
    22  C    3.873946   4.667399   4.639261   4.559163   6.057279
    23  H    4.731817   5.364082   5.629579   5.620023   7.013638
    24  H    4.056469   4.908904   4.713971   4.640798   6.148673
    25  C    4.441923   5.403054   4.853056   4.324739   6.263657
    26  H    4.717627   5.563116   5.181812   4.673168   6.500631
    27  H    4.002857   5.094987   4.121025   3.375164   5.509500
    28  O    5.717929   6.705896   6.058208   5.409560   7.490439
    29  C    6.616708   7.663479   6.741806   5.838414   8.107532
    30  H    7.559033   8.608892   7.692202   6.787077   9.075898
    31  H    6.424040   7.546398   6.323625   5.251851   7.628066
    32  H    6.891306   7.867502   7.064207   6.173850   8.376220
                   11         12         13         14         15
    11  H    0.000000
    12  H    1.780252   0.000000
    13  H    1.770662   1.770163   0.000000
    14  H    5.395997   4.645845   4.886970   0.000000
    15  H    5.022334   4.797092   4.456153   1.751469   0.000000
    16  H    6.213916   5.314941   6.098064   1.945967   3.510352
    17  H    7.782396   7.035056   7.719465   3.138045   4.401128
    18  H    6.881297   6.215258   7.175466   3.485763   4.701044
    19  H    8.305355   8.071210   8.537484   4.420552   4.865324
    20  H    7.363762   7.481655   7.691906   4.321868   4.135396
    21  H    7.279071   7.242203   7.847795   4.598202   4.937451
    22  C    3.919539   2.734480   2.966202   2.436442   2.955543
    23  H    3.506833   2.305737   2.212583   3.473946   3.659073
    24  H    4.863300   3.785862   3.719233   2.234232   2.729477
    25  C    4.574979   3.021218   3.950870   2.937995   4.079213
    26  H    4.036461   2.407726   3.761813   3.655081   4.670106
    27  H    5.264883   3.859457   4.821547   2.469775   3.965670
    28  O    5.519837   3.840312   4.603573   3.936169   5.062753
    29  C    6.461213   4.706516   5.760363   4.913020   6.254787
    30  H    7.231396   5.467063   6.363445   5.727554   7.005680
    31  H    7.040392   5.346422   6.455701   4.731058   6.268996
    32  H    6.162844   4.401311   5.692596   5.444033   6.731890
                   16         17         18         19         20
    16  H    0.000000
    17  H    1.771033   0.000000
    18  H    1.764581   1.775220   0.000000
    19  H    3.651652   2.472258   2.879168   0.000000
    20  H    4.190628   3.673554   3.709758   1.789370   0.000000
    21  H    3.761254   3.282870   2.607883   1.781186   1.771714
    22  C    3.635075   5.272843   5.123148   6.684162   6.372782
    23  H    4.705655   6.359172   6.134030   7.697045   7.256163
    24  H    3.725247   5.165375   5.386041   6.654698   6.425394
    25  C    3.282636   5.004389   4.674806   6.785677   6.811079
    26  H    3.727156   5.483971   4.793004   7.113603   7.066669
    27  H    2.306348   3.983344   3.729779   5.921302   6.169223
    28  O    4.324166   5.911842   5.801428   7.910139   8.053077
    29  C    4.785881   6.256492   6.045072   8.435236   8.804762
    30  H    5.728116   7.117503   7.048631   9.360121   9.755849
    31  H    4.253594   5.541842   5.421241   7.838424   8.410509
    32  H    5.170432   6.711078   6.209764   8.780121   9.091423
                   21         22         23         24         25
    21  H    0.000000
    22  C    6.455599   0.000000
    23  H    7.373587   1.089743   0.000000
    24  H    6.711212   1.095581   1.745102   0.000000
    25  C    6.523636   1.530533   2.144138   2.149344   0.000000
    26  H    6.583140   2.172815   2.500912   3.067844   1.102729
    27  H    5.783903   2.179425   3.067461   2.526828   1.103947
    28  O    7.812944   2.371016   2.593122   2.576821   1.411498
    29  C    8.327117   3.672974   3.922433   3.919969   2.357554
    30  H    9.348011   4.396383   4.496767   4.486099   3.276163
    31  H    7.848478   4.057050   4.553428   4.202752   2.662853
    32  H    8.459566   4.045173   4.179982   4.541655   2.658928
                   26         27         28         29         30
    26  H    0.000000
    27  H    1.771522   0.000000
    28  O    2.082186   2.077695   0.000000
    29  C    2.636846   2.641519   1.413242   0.000000
    30  H    3.620565   3.623158   2.026220   1.092181   0.000000
    31  H    3.034535   2.468019   2.089025   1.101267   1.784164
    32  H    2.459198   3.041673   2.088884   1.100932   1.784290
                   31         32
    31  H    0.000000
    32  H    1.784254   0.000000
 Stoichiometry    C9H18N2O3
 Framework group  C1[X(C9H18N2O3)]
 Deg. of freedom    90
 Full point group                 C1      NOp   1
 Largest Abelian subgroup         C1      NOp   1
 Largest concise Abelian subgroup C1      NOp   1
                         Standard orientation:                         
 ---------------------------------------------------------------------
 Center     Atomic      Atomic             Coordinates (Angstroms)
 Number     Number       Type             X           Y           Z
 ---------------------------------------------------------------------
      1          6           0        1.568822    2.819654   -0.656344
      2          6           0        0.276585    2.125671   -0.221353
      3          8           0       -0.799964    2.649096   -0.443418
      4          7           0        0.406786    0.902367    0.421015
      5          6           0       -0.727310    0.133262    0.972589
      6          6           0       -2.102449    0.039154    0.257109
      7          8           0       -2.868367    0.981964    0.184815
      8          7           0       -2.553309   -1.257186    0.023035
      9          6           0       -1.713457   -2.358528   -0.428566
     10          6           0       -3.957001   -1.396546   -0.352604
     11          1           0        1.273299    3.631485   -1.320111
     12          1           0        2.266384    2.160560   -1.180616
     13          1           0        2.094658    3.252459    0.202042
     14          1           0       -0.348842   -0.864032    1.185036
     15          1           0       -1.009553    0.570476    1.942197
     16          1           0       -0.661142   -2.170784   -0.222677
     17          1           0       -2.001974   -3.289057    0.074299
     18          1           0       -1.815608   -2.514572   -1.512159
     19          1           0       -4.302558   -2.394861   -0.066353
     20          1           0       -4.541704   -0.636308    0.162006
     21          1           0       -4.106376   -1.270659   -1.433945
     22          6           0        1.716157    0.375344    0.816290
     23          1           0        2.444115    1.181991    0.899585
     24          1           0        1.641222   -0.067782    1.815451
     25          6           0        2.262121   -0.679190   -0.149325
     26          1           0        2.390177   -0.243838   -1.154354
     27          1           0        1.550285   -1.516622   -0.252749
     28          8           0        3.493449   -1.130125    0.372992
     29          6           0        4.119307   -2.102009   -0.440025
     30          1           0        5.056850   -2.377379    0.047872
     31          1           0        3.497156   -3.003964   -0.550447
     32          1           0        4.341676   -1.711741   -1.445159
 ---------------------------------------------------------------------
 Rotational constants (GHZ):      0.8107537      0.4023415      0.2876727
 Standard basis: 6-31G(d,p) (6D, 7F)
 There are   300 symmetry adapted basis functions of A   symmetry.
 Integral buffers will be    131072 words long.
 Raffenetti 2 integral format.
 Two-electron integral symmetry is turned on.
   300 basis functions,   518 primitive gaussians,   300 cartesian basis functions
    55 alpha electrons       55 beta electrons
       nuclear repulsion energy       958.5790992107 Hartrees.
 NAtoms=   32 NActive=   32 NUniq=   32 SFac= 1.00D+00 NAtFMM=   60 NAOKFM=F Big=F
 One-electron integrals computed using PRISM.
 NBasis=   300 RedAO= T  NBF=   300
 NBsUse=   300 1.00D-06 NBFU=   300
 Initial guess read from the read-write file.
 B after Tr=     0.000000    0.000000    0.000000
         Rot=    1.000000    0.000000    0.000000    0.000000 Ang=   0.00 deg.
 Initial guess orbital symmetries:
       Occupied  (A) (A) (A) (A) (A) (A) (A) (A) (A) (A) (A) (A)
                 (A) (A) (A) (A) (A) (A) (A) (A) (A) (A) (A) (A)
                 (A) (A) (A) (A) (A) (A) (A) (A) (A) (A) (A) (A)
                 (A) (A) (A) (A) (A) (A) (A) (A) (A) (A) (A) (A)
                 (A) (A) (A) (A) (A) (A) (A)
       Virtual   (A) (A) (A) (A) (A) (A) (A) (A) (A) (A) (A) (A)
                 (A) (A) (A) (A) (A) (A) (A) (A) (A) (A) (A) (A)
                 (A) (A) (A) (A) (A) (A) (A) (A) (A) (A) (A) (A)
                 (A) (A) (A) (A) (A) (A) (A) (A) (A) (A) (A) (A)
                 (A) (A) (A) (A) (A) (A) (A) (A) (A) (A) (A) (A)
                 (A) (A) (A) (A) (A) (A) (A) (A) (A) (A) (A) (A)
                 (A) (A) (A) (A) (A) (A) (A) (A) (A) (A) (A) (A)
                 (A) (A) (A) (A) (A) (A) (A) (A) (A) (A) (A) (A)
                 (A) (A) (A) (A) (A) (A) (A) (A) (A) (A) (A) (A)
                 (A) (A) (A) (A) (A) (A) (A) (A) (A) (A) (A) (A)
                 (A) (A) (A) (A) (A) (A) (A) (A) (A) (A) (A) (A)
                 (A) (A) (A) (A) (A) (A) (A) (A) (A) (A) (A) (A)
                 (A) (A) (A) (A) (A) (A) (A) (A) (A) (A) (A) (A)
                 (A) (A) (A) (A) (A) (A) (A) (A) (A) (A) (A) (A)
                 (A) (A) (A) (A) (A) (A) (A) (A) (A) (A) (A) (A)
                 (A) (A) (A) (A) (A) (A) (A) (A) (A) (A) (A) (A)
                 (A) (A) (A) (A) (A) (A) (A) (A) (A) (A) (A) (A)
                 (A) (A) (A) (A) (A) (A) (A) (A) (A) (A) (A) (A)
                 (A) (A) (A) (A) (A) (A) (A) (A) (A) (A) (A) (A)
                 (A) (A) (A) (A) (A) (A) (A) (A) (A) (A) (A) (A)
                 (A) (A) (A) (A) (A)
 Harris functional with IExCor=  402 diagonalized for initial guess.
 ExpMin= 1.61D-01 ExpMax= 5.48D+03 ExpMxC= 8.25D+02 IAcc=1 IRadAn=         1 AccDes= 0.00D+00
 HarFok:  IExCor=  402 AccDes= 0.00D+00 IRadAn=         1 IDoV= 1
 ScaDFX=  1.000000  1.000000  1.000000  1.000000
 FoFCou: FMM=F IPFlag=           0 FMFlag=      100000 FMFlg1=           0
         NFxFlg=           0 DoJE=T BraDBF=F KetDBF=T FulRan=T
         Omega=  0.000000  0.000000  1.000000  0.000000  0.000000 ICntrl=     500 IOpCl=  0
         NMat0=    1 NMatS0=    1 NMatT0=    0 NMatD0=    1 NMtDS0=    0 NMtDT0=    0
         I1Cent=           4 NGrid=           0.
 Petite list used in FoFCou.
 Requested convergence on RMS density matrix=1.00D-08 within 128 cycles.
 Requested convergence on MAX density matrix=1.00D-06.
 Requested convergence on             energy=1.00D-06.
 No special actions if energy rises.
 Keep R1 ints in memory in canonical form, NReq=1033484484.
