 Entering Gaussian System, Link 0=/data/opt/apps/g09-C01/g09
 Initial command:
 /data/opt/apps/g09-C01/l1.exe /tmp/g09-tuu61186-3073247c21e64fea8x/Gau-3073382.inp -scrdir=/tmp/g09-tuu61186-3073247c21e64fea8x/
 Entering Link 1 = /data/opt/apps/g09-C01/l1.exe PID=   3073390.
  
 Copyright (c) 1988,1990,1992,1993,1995,1998,2003,2009,2011,
            Gaussian, Inc.  All Rights Reserved.
  
 This is part of the Gaussian(R) 09 program.  It is based on
 the Gaussian(R) 03 system (copyright 2003, Gaussian, Inc.),
 the Gaussian(R) 98 system (copyright 1998, Gaussian, Inc.),
 the Gaussian(R) 94 system (copyright 1995, Gaussian, Inc.),
 the Gaussian 92(TM) system (copyright 1992, Gaussian, Inc.),
 the Gaussian 90(TM) system (copyright 1990, Gaussian, Inc.),
 the Gaussian 88(TM) system (copyright 1988, Gaussian, Inc.),
 the Gaussian 86(TM) system (copyright 1986, Carnegie Mellon
 University), and the Gaussian 82(TM) system (copyright 1983,
 Carnegie Mellon University). Gaussian is a federally registered
 trademark of Gaussian, Inc.
  
 This software contains proprietary and confidential information,
 including trade secrets, belonging to Gaussian, Inc.
  
 This software is provided under written license and may be
 used, copied, transmitted, or stored only in accord with that
 written license.
  
 The following legend is applicable only to US Government
 contracts under FAR:
  
                    RESTRICTED RIGHTS LEGEND
  
 Use, reproduction and disclosure by the US Government is
 subject to restrictions as set forth in subparagraphs (a)
 and (c) of the Commercial Computer Software - Restricted
 Rights clause in FAR 52.227-19.
  
 Gaussian, Inc.
 340 Quinnipiac St., Bldg. 40, Wallingford CT 06492
  
  
 ---------------------------------------------------------------
 Warning -- This program may not be used in any manner that
 competes with the business of Gaussian, Inc. or will provide
 assistance to any competitor of Gaussian, Inc.  The licensee
 of this program is prohibited from giving any competitor of
 Gaussian, Inc. access to this program.  By using this program,
 the user acknowledges that Gaussian, Inc. is engaged in the
 business of creating and licensing software in the field of
 computational chemistry and represents and warrants to the
 licensee that it is not a competitor of Gaussian, Inc. and that
 it will not use this program in any manner prohibited above.
 ---------------------------------------------------------------
  

 Cite this work as:
 Gaussian 09, Revision C.01,
 M. J. Frisch, G. W. Trucks, H. B. Schlegel, G. E. Scuseria, 
 M. A. Robb, J. R. Cheeseman, G. Scalmani, V. Barone, B. Mennucci, 
 G. A. Petersson, H. Nakatsuji, M. Caricato, X. Li, H. P. Hratchian, 
 A. F. Izmaylov, J. Bloino, G. Zheng, J. L. Sonnenberg, M. Hada, 
 M. Ehara, K. Toyota, R. Fukuda, J. Hasegawa, M. Ishida, T. Nakajima, 
 Y. Honda, O. Kitao, H. Nakai, T. Vreven, J. A. Montgomery, Jr., 
 J. E. Peralta, F. Ogliaro, M. Bearpark, J. J. Heyd, E. Brothers, 
 K. N. Kudin, V. N. Staroverov, T. Keith, R. Kobayashi, J. Normand, 
 K. Raghavachari, A. Rendell, J. C. Burant, S. S. Iyengar, J. Tomasi, 
 M. Cossi, N. Rega, J. M. Millam, M. Klene, J. E. Knox, J. B. Cross, 
 V. Bakken, C. Adamo, J. Jaramillo, R. Gomperts, R. E. Stratmann, 
 O. Yazyev, A. J. Austin, R. Cammi, C. Pomelli, J. W. Ochterski, 
 R. L. Martin, K. Morokuma, V. G. Zakrzewski, G. A. Voth, 
 P. Salvador, J. J. Dannenberg, S. Dapprich, A. D. Daniels, 
 O. Farkas, J. B. Foresman, J. V. Ortiz, J. Cioslowski, 
 and D. J. Fox, Gaussian, Inc., Wallingford CT, 2010.
 
 ******************************************
 Gaussian 09:  EM64L-G09RevC.01 23-Sep-2011
                24-Apr-2026 
 ******************************************
 %nprocshared=8
 Will use up to    8 processors via shared memory.
 %mem=14GB
 -----------------------------------
 # opt=modredundant b3lyp/6-31g(d,p)
 -----------------------------------
 1/14=-1,18=120,19=15,26=3,38=1/1,3;
 2/9=110,12=2,17=6,18=5,40=1/2;
 3/5=1,6=6,7=101,11=2,16=1,25=1,30=1,71=1,74=-5/1,2,3;
 4//1;
 5/5=2,38=5/2;
 6/7=2,8=2,9=2,10=2,28=1/1;
 7//1,2,3,16;
 1/14=-1,18=20,19=15/3(2);
 2/9=110/2;
 99//99;
 2/9=110/2;
 3/5=1,6=6,7=101,11=2,16=1,25=1,30=1,71=1,74=-5/1,2,3;
 4/5=5,16=3/1;
 5/5=2,38=5/2;
 7//1,2,3,16;
 1/14=-1,18=20,19=15/3(-5);
 2/9=110/2;
 6/7=2,8=2,9=2,10=2,19=2,28=1/1;
 99/9=1/99;
 ---------------
 QM dihedral opt
 ---------------
 Charge =  0 Multiplicity = 1
 Symbolic Z-Matrix:
 C                     2.66154   2.34031   0.4357 
 C                     1.22641   2.14981  -0.03448 
 O                     0.66585   3.01787  -0.69823 
 N                     0.56106   0.99982   0.3597 
 C                    -0.77121   0.86077  -0.23218 
 C                    -1.71108  -0.11506   0.48236 
 O                    -1.46055  -0.58982   1.58692 
 N                    -2.87236  -0.42708  -0.1874 
 C                    -3.37438   0.24514  -1.37682 
 C                    -3.82849  -1.31441   0.46286 
 H                     2.97302   3.33404   0.11555 
 H                     3.3416    1.60013   0.00278 
 H                     2.742     2.26992   1.52474 
 H                    -1.21611   1.85937  -0.23725 
 H                    -0.68358   0.5749   -1.28973 
 H                    -2.61474   0.86738  -1.84389 
 H                    -3.70672  -0.49662  -2.11282 
 H                    -4.23402   0.88393  -1.13135 
 H                    -4.18268  -2.06504  -0.25258 
 H                    -3.33737  -1.80342   1.3015 
 H                    -4.69709  -0.75445   0.83452 
 C                     1.30274  -0.19409   0.78419 
 H                     2.16031   0.11561   1.38185 
 H                     0.65698  -0.7904    1.42465 
 C                     1.80176  -1.04586  -0.38734 
 H                     2.41935  -0.44173  -1.07552 
 H                     0.95151  -1.43392  -0.97452 
 O                     2.55333  -2.1084    0.16159 
 C                     3.03199  -3.01016  -0.81373 
 H                     3.59566  -3.78558  -0.28992 
 H                     2.20893  -3.48419  -1.3713 
 H                     3.69746  -2.51495  -1.53847 
 
 The following ModRedundant input section has been read:
 D       2       4       5       6 F                                           
 D       4       5       6       8 S  36 10.000                                

 GradGradGradGradGradGradGradGradGradGradGradGradGradGradGradGradGradGrad
 Berny optimization.
 Initialization pass.
                           ----------------------------
                           !    Initial Parameters    !
                           ! (Angstroms and Degrees)  !
 --------------------------                            --------------------------
 ! Name  Definition              Value          Derivative Info.                !
 --------------------------------------------------------------------------------
 ! R1    R(1,2)                  1.5221         estimate D2E/DX2                !
 ! R2    R(1,11)                 1.0895         estimate D2E/DX2                !
 ! R3    R(1,12)                 1.0944         estimate D2E/DX2                !
 ! R4    R(1,13)                 1.0943         estimate D2E/DX2                !
 ! R5    R(2,3)                  1.2281         estimate D2E/DX2                !
 ! R6    R(2,4)                  1.3858         estimate D2E/DX2                !
 ! R7    R(4,5)                  1.4644         estimate D2E/DX2                !
 ! R8    R(4,22)                 1.4682         estimate D2E/DX2                !
 ! R9    R(5,6)                  1.5317         estimate D2E/DX2                !
 ! R10   R(5,14)                 1.0932         estimate D2E/DX2                !
 ! R11   R(5,15)                 1.099          estimate D2E/DX2                !
 ! R12   R(6,7)                  1.2281         estimate D2E/DX2                !
 ! R13   R(6,8)                  1.3764         estimate D2E/DX2                !
 ! R14   R(8,9)                  1.4556         estimate D2E/DX2                !
 ! R15   R(8,10)                 1.4575         estimate D2E/DX2                !
 ! R16   R(9,16)                 1.0874         estimate D2E/DX2                !
 ! R17   R(9,17)                 1.0965         estimate D2E/DX2                !
 ! R18   R(9,18)                 1.0988         estimate D2E/DX2                !
 ! R19   R(10,19)                1.0958         estimate D2E/DX2                !
 ! R20   R(10,20)                1.088          estimate D2E/DX2                !
 ! R21   R(10,21)                1.0982         estimate D2E/DX2                !
 ! R22   R(22,23)                1.0902         estimate D2E/DX2                !
 ! R23   R(22,24)                1.0875         estimate D2E/DX2                !
 ! R24   R(22,25)                1.532          estimate D2E/DX2                !
 ! R25   R(25,26)                1.1045         estimate D2E/DX2                !
 ! R26   R(25,27)                1.1038         estimate D2E/DX2                !
 ! R27   R(25,28)                1.4125         estimate D2E/DX2                !
 ! R28   R(28,29)                1.4119         estimate D2E/DX2                !
 ! R29   R(29,30)                1.0924         estimate D2E/DX2                !
 ! R30   R(29,31)                1.1014         estimate D2E/DX2                !
 ! R31   R(29,32)                1.1015         estimate D2E/DX2                !
 ! A1    A(2,1,11)             107.0337         estimate D2E/DX2                !
 ! A2    A(2,1,12)             112.2737         estimate D2E/DX2                !
 ! A3    A(2,1,13)             111.6348         estimate D2E/DX2                !
 ! A4    A(11,1,12)            108.8435         estimate D2E/DX2                !
 ! A5    A(11,1,13)            109.274          estimate D2E/DX2                !
 ! A6    A(12,1,13)            107.7267         estimate D2E/DX2                !
 ! A7    A(1,2,3)              120.585          estimate D2E/DX2                !
 ! A8    A(1,2,4)              117.947          estimate D2E/DX2                !
 ! A9    A(3,2,4)              121.4067         estimate D2E/DX2                !
 ! A10   A(2,4,5)              113.6162         estimate D2E/DX2                !
 ! A11   A(2,4,22)             120.9627         estimate D2E/DX2                !
 ! A12   A(5,4,22)             119.9471         estimate D2E/DX2                !
 ! A13   A(4,5,6)              115.4785         estimate D2E/DX2                !
 ! A14   A(4,5,14)             106.5812         estimate D2E/DX2                !
 ! A15   A(4,5,15)             109.9425         estimate D2E/DX2                !
 ! A16   A(6,5,14)             109.5356         estimate D2E/DX2                !
 ! A17   A(6,5,15)             109.3965         estimate D2E/DX2                !
 ! A18   A(14,5,15)            105.4017         estimate D2E/DX2                !
 ! A19   A(5,6,7)              122.7299         estimate D2E/DX2                !
 ! A20   A(5,6,8)              115.7935         estimate D2E/DX2                !
 ! A21   A(7,6,8)              121.475          estimate D2E/DX2                !
 ! A22   A(6,8,9)              125.7273         estimate D2E/DX2                !
 ! A23   A(6,8,10)             118.3195         estimate D2E/DX2                !
 ! A24   A(9,8,10)             114.8012         estimate D2E/DX2                !
 ! A25   A(8,9,16)             111.9826         estimate D2E/DX2                !
 ! A26   A(8,9,17)             109.9139         estimate D2E/DX2                !
 ! A27   A(8,9,18)             110.8409         estimate D2E/DX2                !
 ! A28   A(16,9,17)            108.0909         estimate D2E/DX2                !
 ! A29   A(16,9,18)            108.0499         estimate D2E/DX2                !
 ! A30   A(17,9,18)            107.8252         estimate D2E/DX2                !
 ! A31   A(8,10,19)            109.7414         estimate D2E/DX2                !
 ! A32   A(8,10,20)            108.7478         estimate D2E/DX2                !
 ! A33   A(8,10,21)            111.0635         estimate D2E/DX2                !
 ! A34   A(19,10,20)           109.956          estimate D2E/DX2                !
 ! A35   A(19,10,21)           108.3354         estimate D2E/DX2                !
 ! A36   A(20,10,21)           108.9862         estimate D2E/DX2                !
 ! A37   A(4,22,23)            108.9567         estimate D2E/DX2                !
 ! A38   A(4,22,24)            108.4317         estimate D2E/DX2                !
 ! A39   A(4,22,25)            113.3012         estimate D2E/DX2                !
 ! A40   A(23,22,24)           107.4566         estimate D2E/DX2                !
 ! A41   A(23,22,25)           108.72           estimate D2E/DX2                !
 ! A42   A(24,22,25)           109.8098         estimate D2E/DX2                !
 ! A43   A(22,25,26)           110.7617         estimate D2E/DX2                !
 ! A44   A(22,25,27)           110.5713         estimate D2E/DX2                !
 ! A45   A(22,25,28)           107.1197         estimate D2E/DX2                !
 ! A46   A(26,25,27)           106.9515         estimate D2E/DX2                !
 ! A47   A(26,25,28)           110.8584         estimate D2E/DX2                !
 ! A48   A(27,25,28)           110.6184         estimate D2E/DX2                !
 ! A49   A(25,28,29)           113.1019         estimate D2E/DX2                !
 ! A50   A(28,29,30)           107.2806         estimate D2E/DX2                !
 ! A51   A(28,29,31)           111.7929         estimate D2E/DX2                !
 ! A52   A(28,29,32)           111.85           estimate D2E/DX2                !
 ! A53   A(30,29,31)           108.8341         estimate D2E/DX2                !
 ! A54   A(30,29,32)           108.8362         estimate D2E/DX2                !
 ! A55   A(31,29,32)           108.1729         estimate D2E/DX2                !
 ! D1    D(11,1,2,3)             2.9114         estimate D2E/DX2                !
 ! D2    D(11,1,2,4)          -174.281          estimate D2E/DX2                !
 ! D3    D(12,1,2,3)          -116.4639         estimate D2E/DX2                !
 ! D4    D(12,1,2,4)            66.3437         estimate D2E/DX2                !
 ! D5    D(13,1,2,3)           122.4435         estimate D2E/DX2                !
 ! D6    D(13,1,2,4)           -54.7489         estimate D2E/DX2                !
 ! D7    D(1,2,4,5)           -175.3303         estimate D2E/DX2                !
 ! D8    D(1,2,4,22)           -21.4738         estimate D2E/DX2                !
 ! D9    D(3,2,4,5)              7.5016         estimate D2E/DX2                !
 ! D10   D(3,2,4,22)           161.3582         estimate D2E/DX2                !
 ! D11   D(2,4,5,6)           -161.33           Frozen                          !
 ! D12   D(2,4,5,14)           -39.4344         estimate D2E/DX2                !
 ! D13   D(2,4,5,15)            74.3202         estimate D2E/DX2                !
 ! D14   D(22,4,5,6)            44.5223         estimate D2E/DX2                !
 ! D15   D(22,4,5,14)          166.4178         estimate D2E/DX2                !
 ! D16   D(22,4,5,15)          -79.8276         estimate D2E/DX2                !
 ! D17   D(2,4,22,23)           39.6322         estimate D2E/DX2                !
 ! D18   D(2,4,22,24)          156.2995         estimate D2E/DX2                !
 ! D19   D(2,4,22,25)          -81.5271         estimate D2E/DX2                !
 ! D20   D(5,4,22,23)         -168.1379         estimate D2E/DX2                !
 ! D21   D(5,4,22,24)          -51.4706         estimate D2E/DX2                !
 ! D22   D(5,4,22,25)           70.7028         estimate D2E/DX2                !
 ! D23   D(4,5,6,7)             11.1915         estimate D2E/DX2                !
 ! D24   D(4,5,6,8)           -169.2587         Scan                            !
 ! D25   D(14,5,6,7)          -109.1068         estimate D2E/DX2                !
 ! D26   D(14,5,6,8)            70.443          estimate D2E/DX2                !
 ! D27   D(15,5,6,7)           135.8255         estimate D2E/DX2                !
 ! D28   D(15,5,6,8)           -44.6248         estimate D2E/DX2                !
 ! D29   D(5,6,8,9)            -10.8421         estimate D2E/DX2                !
 ! D30   D(5,6,8,10)          -177.8956         estimate D2E/DX2                !
 ! D31   D(7,6,8,9)            168.7138         estimate D2E/DX2                !
 ! D32   D(7,6,8,10)             1.6603         estimate D2E/DX2                !
 ! D33   D(6,8,9,16)            14.5308         estimate D2E/DX2                !
 ! D34   D(6,8,9,17)           134.6902         estimate D2E/DX2                !
 ! D35   D(6,8,9,18)          -106.2131         estimate D2E/DX2                !
 ! D36   D(10,8,9,16)         -178.0177         estimate D2E/DX2                !
 ! D37   D(10,8,9,17)          -57.8583         estimate D2E/DX2                !
 ! D38   D(10,8,9,18)           61.2384         estimate D2E/DX2                !
 ! D39   D(6,8,10,19)         -134.9573         estimate D2E/DX2                !
 ! D40   D(6,8,10,20)          -14.6437         estimate D2E/DX2                !
 ! D41   D(6,8,10,21)          105.2829         estimate D2E/DX2                !
 ! D42   D(9,8,10,19)           56.6006         estimate D2E/DX2                !
 ! D43   D(9,8,10,20)          176.9141         estimate D2E/DX2                !
 ! D44   D(9,8,10,21)          -63.1593         estimate D2E/DX2                !
 ! D45   D(4,22,25,26)          55.804          estimate D2E/DX2                !
 ! D46   D(4,22,25,27)         -62.5764         estimate D2E/DX2                !
 ! D47   D(4,22,25,28)         176.8155         estimate D2E/DX2                !
 ! D48   D(23,22,25,26)        -65.4885         estimate D2E/DX2                !
 ! D49   D(23,22,25,27)        176.1311         estimate D2E/DX2                !
 ! D50   D(23,22,25,28)         55.5231         estimate D2E/DX2                !
 ! D51   D(24,22,25,26)        177.2064         estimate D2E/DX2                !
 ! D52   D(24,22,25,27)         58.826          estimate D2E/DX2                !
 ! D53   D(24,22,25,28)        -61.782          estimate D2E/DX2                !
 ! D54   D(22,25,28,29)        177.5644         estimate D2E/DX2                !
 ! D55   D(26,25,28,29)        -61.4854         estimate D2E/DX2                !
 ! D56   D(27,25,28,29)         56.9862         estimate D2E/DX2                !
 ! D57   D(25,28,29,30)        179.9275         estimate D2E/DX2                !
 ! D58   D(25,28,29,31)        -60.8308         estimate D2E/DX2                !
 ! D59   D(25,28,29,32)         60.65           estimate D2E/DX2                !
 --------------------------------------------------------------------------------
 Trust Radius=3.00D-01 FncErr=1.00D-07 GrdErr=1.00D-06
 Number of optimizations in scan=  37
 Number of steps in this run=    155 maximum allowed number of steps=    192.
 GradGradGradGradGradGradGradGradGradGradGradGradGradGradGradGradGradGrad

                          Input orientation:                          
 ---------------------------------------------------------------------
 Center     Atomic      Atomic             Coordinates (Angstroms)
 Number     Number       Type             X           Y           Z
 ---------------------------------------------------------------------
      1          6           0        2.661538    2.340305    0.435697
      2          6           0        1.226414    2.149805   -0.034479
      3          8           0        0.665851    3.017874   -0.698232
      4          7           0        0.561059    0.999818    0.359702
      5          6           0       -0.771213    0.860772   -0.232176
      6          6           0       -1.711079   -0.115063    0.482355
      7          8           0       -1.460553   -0.589822    1.586924
      8          7           0       -2.872356   -0.427084   -0.187397
      9          6           0       -3.374383    0.245143   -1.376823
     10          6           0       -3.828494   -1.314410    0.462864
     11          1           0        2.973022    3.334043    0.115550
     12          1           0        3.341596    1.600126    0.002783
     13          1           0        2.742002    2.269918    1.524738
     14          1           0       -1.216110    1.859367   -0.237249
     15          1           0       -0.683582    0.574900   -1.289731
     16          1           0       -2.614740    0.867376   -1.843887
     17          1           0       -3.706721   -0.496621   -2.112824
     18          1           0       -4.234017    0.883932   -1.131347
     19          1           0       -4.182677   -2.065039   -0.252581
     20          1           0       -3.337369   -1.803415    1.301500
     21          1           0       -4.697085   -0.754454    0.834516
     22          6           0        1.302738   -0.194094    0.784188
     23          1           0        2.160305    0.115609    1.381853
     24          1           0        0.656984   -0.790397    1.424646
     25          6           0        1.801755   -1.045861   -0.387338
     26          1           0        2.419352   -0.441726   -1.075521
     27          1           0        0.951512   -1.433920   -0.974524
     28          8           0        2.553326   -2.108399    0.161591
     29          6           0        3.031985   -3.010155   -0.813727
     30          1           0        3.595661   -3.785581   -0.289921
     31          1           0        2.208934   -3.484191   -1.371299
     32          1           0        3.697458   -2.514949   -1.538466
 ---------------------------------------------------------------------
                    Distance matrix (angstroms):
                    1          2          3          4          5
     1  C    0.000000
     2  C    1.522149   0.000000
     3  O    2.393253   1.228146   0.000000
     4  N    2.492929   1.385838   2.280955   0.000000
     5  C    3.797216   2.385624   2.633524   1.464446   0.000000
     6  C    5.015056   3.745078   4.105956   2.533893   1.531717
     7  O    5.186772   4.165849   4.770640   2.849552   2.426631
     8  N    6.218575   4.843930   4.964635   3.758152   2.464829
     9  C    6.641331   5.157224   4.946920   4.367237   2.909589
    10  C    7.448369   6.148189   6.349485   4.963312   3.815949
    11  H    1.089510   2.115554   2.466828   3.365380   4.500809
    12  H    1.094421   2.185756   3.108222   2.866905   4.185337
    13  H    1.094276   2.177749   3.132321   2.779744   4.173143
    14  H    3.964885   2.468075   2.257525   2.062403   1.093230
    15  H    4.157353   2.775620   2.852887   2.109577   1.099011
    16  H    5.933391   4.435431   4.086495   3.867692   2.448724
    17  H    7.422791   5.971508   5.785510   5.154286   3.741198
    18  H    7.219787   5.711555   5.361903   5.022889   3.577717
    19  H    8.168480   6.860812   7.038667   5.680781   4.494316
    20  H    7.342133   6.183923   6.577958   4.893142   4.004399
    21  H    7.992867   6.654150   6.733562   5.563362   4.377129
    22  C    2.896716   2.483929   3.594431   1.468231   2.539096
    23  H    2.468951   2.648793   3.870825   2.093850   3.428433
    24  H    3.846759   3.331379   4.360002   2.085228   2.740650
    25  C    3.589253   3.266161   4.230943   2.506431   3.206164
    26  H    3.175237   3.036923   3.896915   2.755207   3.547878
    27  H    4.376949   3.715150   4.469498   2.802801   2.963861
    28  O    4.458454   4.464464   5.529967   3.697214   4.474772
    29  C    5.506879   5.522002   6.476810   4.854101   5.457709
    30  H    6.239037   6.395888   7.418727   5.703583   6.376639
    31  H    6.115132   5.873189   6.716470   5.081161   5.390508
    32  H    5.342653   5.488895   6.364650   5.078743   5.750731
                    6          7          8          9         10
     6  C    0.000000
     7  O    1.228101   0.000000
     8  N    1.376404   2.273299   0.000000
     9  C    2.520490   3.625425   1.455560   0.000000
    10  C    2.433569   2.719501   1.457528   2.454154   0.000000
    11  H    5.828523   6.100676   6.957463   7.215125   8.245566
    12  H    5.357368   5.510536   6.539033   6.988824   7.753476
    13  H    5.157967   5.083645   6.459585   7.066041   7.559524
    14  H    2.158981   3.063639   2.823738   2.926173   4.169840
    15  H    2.161501   3.199282   2.647611   2.712330   4.065901
    16  H    2.682013   3.902056   2.118007   1.087373   3.399189
    17  H    3.295926   4.329214   2.099588   1.096522   2.705139
    18  H    3.157094   4.153679   2.112800   1.098763   2.745663
    19  H    3.232852   3.601389   2.098592   2.693362   1.095788
    20  H    2.483214   2.253156   2.080226   3.372147   1.087952
    21  H    3.073934   3.326915   2.116864   2.763830   1.098238
    22  C    3.029924   2.904611   4.292979   5.170915   5.261929
    23  H    3.981196   3.694631   5.299504   6.185454   6.225368
    24  H    2.636610   2.133197   3.897040   5.017220   4.617264
    25  C    3.736677   3.840356   4.719129   5.425696   5.700409
    26  H    4.426528   4.707888   5.365739   5.842083   6.493365
    27  H    3.309270   3.618228   4.031781   4.657732   4.992877
    28  O    4.718202   4.522043   5.690926   6.560763   6.438075
    29  C    5.705966   5.639507   6.475013   7.208023   7.181324
    30  H    6.498508   6.269029   7.288708   8.124630   7.860754
    31  H    5.491226   5.531147   6.047068   6.714268   6.672529
    32  H    6.252635   6.330818   7.024744   7.593100   7.879503
                   11         12         13         14         15
    11  H    0.000000
    12  H    1.776241   0.000000
    13  H    1.780883   1.767620   0.000000
    14  H    4.455105   4.571379   4.351988   0.000000
    15  H    4.791496   4.350142   4.746467   1.743892   0.000000
    16  H    6.414587   6.278937   6.481469   2.349787   2.030271
    17  H    8.016146   7.651857   7.903899   3.907890   3.311345
    18  H    7.713573   7.693445   7.592140   3.295246   3.567376
    19  H    8.971602   8.373370   8.360735   4.919524   4.504289
    20  H    8.223198   7.607847   7.321245   4.503716   4.406069
    21  H    8.721425   8.417614   8.059978   4.483071   4.731576
    22  C    3.960388   2.826086   2.948093   3.406557   2.972870
    23  H    3.552795   2.345437   2.236031   4.130661   3.928868
    24  H    4.908031   3.865674   3.704436   3.645768   3.320993
    25  C    4.561614   3.086187   3.941382   4.191704   3.101303
    26  H    3.997703   2.486450   3.770738   4.383413   3.272249
    27  H    5.292281   3.984102   4.813583   4.010972   2.609262
    28  O    5.458795   3.794700   4.589491   5.487339   4.447921
    29  C    6.412167   4.692253   5.782013   6.487749   5.185040
    30  H    7.158291   5.399636   6.378933   7.417638   6.190746
    31  H    7.020176   5.387142   6.463819   6.447527   4.984929
    32  H    6.121379   4.408620   5.761169   6.706039   5.366800
                   16         17         18         19         20
    16  H    0.000000
    17  H    1.767834   0.000000
    18  H    1.769193   1.774053   0.000000
    19  H    3.686426   2.479309   3.077547   0.000000
    20  H    4.189126   3.674471   3.734241   1.788340   0.000000
    21  H    3.760364   3.119954   2.600646   1.778772   1.779669
    22  C    4.835300   5.794729   5.957103   5.887708   4.938433
    23  H    5.811334   6.856354   6.913310   6.903624   5.823532
    24  H    4.912810   5.625115   5.767007   5.278269   4.122648
    25  C    5.028662   5.798472   6.380297   6.072093   5.462294
    26  H    5.257967   6.213516   6.784379   6.848296   6.375285
    27  H    4.332425   4.886040   5.682142   5.222969   4.869426
    28  O    6.291747   6.852662   7.529526   6.748863   6.007720
    29  C    6.926903   7.308602   8.249823   7.297909   6.819023
    30  H    7.914158   8.213709   9.155119   7.966442   7.384342
    31  H    6.513625   6.668614   7.787791   6.642154   6.382033
    32  H    7.167792   7.695804   8.638659   7.997027   7.619743
                   21         22         23         24         25
    21  H    0.000000
    22  C    6.026144   0.000000
    23  H    6.934002   1.090202   0.000000
    24  H    5.386613   1.087549   1.755748   0.000000
    25  C    6.619121   1.531992   2.146534   2.158483   0.000000
    26  H    7.374938   2.183270   2.533064   3.078692   1.104537
    27  H    5.970004   2.180274   3.068344   2.501377   1.103762
    28  O    7.406379   2.369844   2.567044   2.632214   1.412505
    29  C    8.218480   3.670671   3.918009   3.946932   2.356634
    30  H    8.900659   4.394313   4.480442   4.532846   3.276226
    31  H    7.746624   4.036342   4.532193   4.181194   2.660719
    32  H    8.899367   4.063960   4.220301   4.582422   2.660264
                   26         27         28         29         30
    26  H    0.000000
    27  H    1.774600   0.000000
    28  O    2.079950   2.076412   0.000000
    29  C    2.653429   2.615099   1.411922   0.000000
    30  H    3.630735   3.604236   2.025652   1.092423   0.000000
    31  H    3.064042   2.437653   2.088339   1.101367   1.784160
    32  H    2.479138   3.004476   2.089142   1.101513   1.784302
                   31         32
    31  H    0.000000
    32  H    1.784118   0.000000
 Stoichiometry    C9H18N2O3
 Framework group  C1[X(C9H18N2O3)]
 Deg. of freedom    90
 Full point group                 C1      NOp   1
 Largest Abelian subgroup         C1      NOp   1
 Largest concise Abelian subgroup C1      NOp   1
                         Standard orientation:                         
 ---------------------------------------------------------------------
 Center     Atomic      Atomic             Coordinates (Angstroms)
 Number     Number       Type             X           Y           Z
 ---------------------------------------------------------------------
      1          6           0       -2.661538    2.340305   -0.435697
      2          6           0       -1.226414    2.149805    0.034479
      3          8           0       -0.665851    3.017874    0.698232
      4          7           0       -0.561059    0.999818   -0.359702
      5          6           0        0.771213    0.860772    0.232176
      6          6           0        1.711079   -0.115063   -0.482355
      7          8           0        1.460553   -0.589822   -1.586924
      8          7           0        2.872356   -0.427084    0.187397
      9          6           0        3.374383    0.245143    1.376823
     10          6           0        3.828494   -1.314410   -0.462864
     11          1           0       -2.973022    3.334043   -0.115550
     12          1           0       -3.341596    1.600126   -0.002783
     13          1           0       -2.742002    2.269918   -1.524738
     14          1           0        1.216110    1.859367    0.237249
     15          1           0        0.683582    0.574900    1.289731
     16          1           0        2.614740    0.867376    1.843887
     17          1           0        3.706721   -0.496621    2.112824
     18          1           0        4.234017    0.883932    1.131347
     19          1           0        4.182677   -2.065039    0.252581
     20          1           0        3.337369   -1.803415   -1.301500
     21          1           0        4.697085   -0.754455   -0.834516
     22          6           0       -1.302738   -0.194094   -0.784188
     23          1           0       -2.160305    0.115609   -1.381853
     24          1           0       -0.656984   -0.790397   -1.424646
     25          6           0       -1.801755   -1.045861    0.387338
     26          1           0       -2.419352   -0.441726    1.075521
     27          1           0       -0.951512   -1.433920    0.974524
     28          8           0       -2.553326   -2.108399   -0.161591
     29          6           0       -3.031985   -3.010155    0.813727
     30          1           0       -3.595661   -3.785580    0.289921
     31          1           0       -2.208934   -3.484191    1.371299
     32          1           0       -3.697458   -2.514948    1.538466
 ---------------------------------------------------------------------
 Rotational constants (GHZ):      0.7153982      0.4279025      0.3085639
 Standard basis: 6-31G(d,p) (6D, 7F)
 There are   300 symmetry adapted basis functions of A   symmetry.
 Integral buffers will be    131072 words long.
 Raffenetti 2 integral format.
 Two-electron integral symmetry is turned on.
   300 basis functions,   518 primitive gaussians,   300 cartesian basis functions
    55 alpha electrons       55 beta electrons
       nuclear repulsion energy       962.7429317754 Hartrees.
 NAtoms=   32 NActive=   32 NUniq=   32 SFac= 1.00D+00 NAtFMM=   60 NAOKFM=F Big=F
 One-electron integrals computed using PRISM.
 NBasis=   300 RedAO= T  NBF=   300
 NBsUse=   300 1.00D-06 NBFU=   300
 Harris functional with IExCor=  402 diagonalized for initial guess.
 ExpMin= 1.61D-01 ExpMax= 5.48D+03 ExpMxC= 8.25D+02 IAcc=1 IRadAn=         1 AccDes= 0.00D+00
 HarFok:  IExCor=  402 AccDes= 0.00D+00 IRadAn=         1 IDoV= 1
 ScaDFX=  1.000000  1.000000  1.000000  1.000000
 FoFCou: FMM=F IPFlag=           0 FMFlag=      100000 FMFlg1=           0
         NFxFlg=           0 DoJE=T BraDBF=F KetDBF=T FulRan=T
         Omega=  0.000000  0.000000  1.000000  0.000000  0.000000 ICntrl=     500 IOpCl=  0
         NMat0=    1 NMatS0=    1 NMatT0=    0 NMatD0=    1 NMtDS0=    0 NMtDT0=    0
         I1Cent=           4 NGrid=           0.
 Petite list used in FoFCou.
 Initial guess orbital symmetries:
       Occupied  (A) (A) (A) (A) (A) (A) (A) (A) (A) (A) (A) (A)
                 (A) (A) (A) (A) (A) (A) (A) (A) (A) (A) (A) (A)
                 (A) (A) (A) (A) (A) (A) (A) (A) (A) (A) (A) (A)
                 (A) (A) (A) (A) (A) (A) (A) (A) (A) (A) (A) (A)
                 (A) (A) (A) (A) (A) (A) (A)
       Virtual   (A) (A) (A) (A) (A) (A) (A) (A) (A) (A) (A) (A)
                 (A) (A) (A) (A) (A) (A) (A) (A) (A) (A) (A) (A)
                 (A) (A) (A) (A) (A) (A) (A) (A) (A) (A) (A) (A)
                 (A) (A) (A) (A) (A) (A) (A) (A) (A) (A) (A) (A)
                 (A) (A) (A) (A) (A) (A) (A) (A) (A) (A) (A) (A)
                 (A) (A) (A) (A) (A) (A) (A) (A) (A) (A) (A) (A)
                 (A) (A) (A) (A) (A) (A) (A) (A) (A) (A) (A) (A)
                 (A) (A) (A) (A) (A) (A) (A) (A) (A) (A) (A) (A)
                 (A) (A) (A) (A) (A) (A) (A) (A) (A) (A) (A) (A)
                 (A) (A) (A) (A) (A) (A) (A) (A) (A) (A) (A) (A)
                 (A) (A) (A) (A) (A) (A) (A) (A) (A) (A) (A) (A)
                 (A) (A) (A) (A) (A) (A) (A) (A) (A) (A) (A) (A)
                 (A) (A) (A) (A) (A) (A) (A) (A) (A) (A) (A) (A)
                 (A) (A) (A) (A) (A) (A) (A) (A) (A) (A) (A) (A)
                 (A) (A) (A) (A) (A) (A) (A) (A) (A) (A) (A) (A)
                 (A) (A) (A) (A) (A) (A) (A) (A) (A) (A) (A) (A)
                 (A) (A) (A) (A) (A) (A) (A) (A) (A) (A) (A) (A)
                 (A) (A) (A) (A) (A) (A) (A) (A) (A) (A) (A) (A)
                 (A) (A) (A) (A) (A) (A) (A) (A) (A) (A) (A) (A)
                 (A) (A) (A) (A) (A) (A) (A) (A) (A) (A) (A) (A)
                 (A) (A) (A) (A) (A)
 The electronic state of the initial guess is 1-A.
 Requested convergence on RMS density matrix=1.00D-08 within 128 cycles.
 Requested convergence on MAX density matrix=1.00D-06.
 Requested convergence on             energy=1.00D-06.
 No special actions if energy rises.
 Keep R1 ints in memory in canonical form, NReq=1033484783.
 Integral accuracy reduced to 1.0D-05 until final iterations.
 Initial convergence to 1.0D-05 achieved.  Increase integral accuracy.
 SCF Done:  E(RB3LYP) =  -688.991140390     A.U. after   14 cycles
             Convg  =    0.7005D-08             -V/T =  2.0093

 **********************************************************************

            Population analysis using the SCF density.

 **********************************************************************

 Orbital symmetries:
       Occupied  (A) (A) (A) (A) (A) (A) (A) (A) (A) (A) (A) (A)
                 (A) (A) (A) (A) (A) (A) (A) (A) (A) (A) (A) (A)
                 (A) (A) (A) (A) (A) (A) (A) (A) (A) (A) (A) (A)
                 (A) (A) (A) (A) (A) (A) (A) (A) (A) (A) (A) (A)
                 (A) (A) (A) (A) (A) (A) (A)
       Virtual   (A) (A) (A) (A) (A) (A) (A) (A) (A) (A) (A) (A)
                 (A) (A) (A) (A) (A) (A) (A) (A) (A) (A) (A) (A)
                 (A) (A) (A) (A) (A) (A) (A) (A) (A) (A) (A) (A)
                 (A) (A) (A) (A) (A) (A) (A) (A) (A) (A) (A) (A)
                 (A) (A) (A) (A) (A) (A) (A) (A) (A) (A) (A) (A)
                 (A) (A) (A) (A) (A) (A) (A) (A) (A) (A) (A) (A)
                 (A) (A) (A) (A) (A) (A) (A) (A) (A) (A) (A) (A)
                 (A) (A) (A) (A) (A) (A) (A) (A) (A) (A) (A) (A)
                 (A) (A) (A) (A) (A) (A) (A) (A) (A) (A) (A) (A)
                 (A) (A) (A) (A) (A) (A) (A) (A) (A) (A) (A) (A)
                 (A) (A) (A) (A) (A) (A) (A) (A) (A) (A) (A) (A)
                 (A) (A) (A) (A) (A) (A) (A) (A) (A) (A) (A) (A)
                 (A) (A) (A) (A) (A) (A) (A) (A) (A) (A) (A) (A)
                 (A) (A) (A) (A) (A) (A) (A) (A) (A) (A) (A) (A)
                 (A) (A) (A) (A) (A) (A) (A) (A) (A) (A) (A) (A)
                 (A) (A) (A) (A) (A) (A) (A) (A) (A) (A) (A) (A)
                 (A) (A) (A) (A) (A) (A) (A) (A) (A) (A) (A) (A)
                 (A) (A) (A) (A) (A) (A) (A) (A) (A) (A) (A) (A)
                 (A) (A) (A) (A) (A) (A) (A) (A) (A) (A) (A) (A)
                 (A) (A) (A) (A) (A) (A) (A) (A) (A) (A) (A) (A)
                 (A) (A) (A) (A) (A)
 The electronic state is 1-A.
 Alpha  occ. eigenvalues --  -19.15261 -19.11578 -19.10780 -14.37148 -14.36176
 Alpha  occ. eigenvalues --  -10.29288 -10.28159 -10.23555 -10.23245 -10.23100
 Alpha  occ. eigenvalues --  -10.22890 -10.21654 -10.21076 -10.18697  -1.03878
 Alpha  occ. eigenvalues --   -1.03617  -1.02671  -0.93745  -0.92630  -0.77117
 Alpha  occ. eigenvalues --   -0.75075  -0.73150  -0.71954  -0.68396  -0.66622
 Alpha  occ. eigenvalues --   -0.62077  -0.56158  -0.53445  -0.51334  -0.49948
 Alpha  occ. eigenvalues --   -0.49241  -0.48190  -0.47521  -0.46672  -0.46262
 Alpha  occ. eigenvalues --   -0.45383  -0.43309  -0.42922  -0.41519  -0.41074
 Alpha  occ. eigenvalues --   -0.41021  -0.40713  -0.38930  -0.38841  -0.38580
 Alpha  occ. eigenvalues --   -0.37668  -0.36162  -0.35289  -0.34362  -0.32324
 Alpha  occ. eigenvalues --   -0.26041  -0.25767  -0.24868  -0.24394  -0.23216
 Alpha virt. eigenvalues --    0.01917   0.02595   0.07365   0.08520   0.09406
 Alpha virt. eigenvalues --    0.10796   0.11873   0.13221   0.13835   0.14409
 Alpha virt. eigenvalues --    0.14613   0.15239   0.15645   0.16029   0.16379
 Alpha virt. eigenvalues --    0.17009   0.17492   0.18597   0.18962   0.19294
 Alpha virt. eigenvalues --    0.20248   0.20917   0.21553   0.22431   0.23063
 Alpha virt. eigenvalues --    0.23331   0.26512   0.27468   0.29405   0.33986
 Alpha virt. eigenvalues --    0.35142   0.38155   0.40078   0.47934   0.49118
 Alpha virt. eigenvalues --    0.50259   0.50502   0.51492   0.52040   0.53496
 Alpha virt. eigenvalues --    0.53820   0.55111   0.55605   0.56183   0.57510
 Alpha virt. eigenvalues --    0.60008   0.60589   0.61596   0.64669   0.65034
 Alpha virt. eigenvalues --    0.66263   0.67720   0.68281   0.68589   0.71133
 Alpha virt. eigenvalues --    0.73284   0.74543   0.75259   0.75972   0.76732
 Alpha virt. eigenvalues --    0.78078   0.79712   0.80293   0.81359   0.83286
 Alpha virt. eigenvalues --    0.83794   0.84148   0.85224   0.85653   0.86063
 Alpha virt. eigenvalues --    0.86860   0.87880   0.88161   0.89126   0.90626
 Alpha virt. eigenvalues --    0.90909   0.91903   0.92481   0.93105   0.94506
 Alpha virt. eigenvalues --    0.95478   0.96649   0.98104   0.99081   1.00126
 Alpha virt. eigenvalues --    1.02184   1.04496   1.05689   1.09000   1.10004
 Alpha virt. eigenvalues --    1.12491   1.14266   1.18659   1.19005   1.22974
 Alpha virt. eigenvalues --    1.25677   1.27927   1.28856   1.29769   1.32260
 Alpha virt. eigenvalues --    1.34441   1.35261   1.37273   1.37929   1.39817
 Alpha virt. eigenvalues --    1.41008   1.43044   1.48156   1.48399   1.49517
 Alpha virt. eigenvalues --    1.56975   1.59908   1.60840   1.63031   1.67779
 Alpha virt. eigenvalues --    1.68982   1.70414   1.71823   1.72320   1.73155
 Alpha virt. eigenvalues --    1.75006   1.78503   1.79554   1.80242   1.81013
 Alpha virt. eigenvalues --    1.83031   1.84404   1.85689   1.87200   1.88140
 Alpha virt. eigenvalues --    1.88998   1.90256   1.90498   1.91888   1.94365
 Alpha virt. eigenvalues --    1.95717   1.96409   1.97691   1.98425   1.98910
 Alpha virt. eigenvalues --    2.00398   2.01205   2.02324   2.02596   2.02774
 Alpha virt. eigenvalues --    2.03191   2.03313   2.03803   2.04880   2.06752
 Alpha virt. eigenvalues --    2.07582   2.08300   2.10019   2.10886   2.11313
 Alpha virt. eigenvalues --    2.11933   2.14496   2.15577   2.16553   2.20475
 Alpha virt. eigenvalues --    2.21594   2.24793   2.25112   2.27334   2.28898
 Alpha virt. eigenvalues --    2.32036   2.32826   2.34656   2.38804   2.39953
 Alpha virt. eigenvalues --    2.41581   2.42956   2.47656   2.49737   2.51682
 Alpha virt. eigenvalues --    2.52041   2.52642   2.55090   2.56226   2.57385
 Alpha virt. eigenvalues --    2.57965   2.60370   2.60647   2.63193   2.64982
 Alpha virt. eigenvalues --    2.66463   2.67586   2.68550   2.68999   2.70808
 Alpha virt. eigenvalues --    2.71922   2.73443   2.75319   2.78195   2.79399
 Alpha virt. eigenvalues --    2.81346   2.82865   2.84422   2.84678   2.86089
 Alpha virt. eigenvalues --    2.86699   2.88312   2.90011   2.91121   2.94156
 Alpha virt. eigenvalues --    2.95547   2.98156   2.98551   3.04944   3.05200
 Alpha virt. eigenvalues --    3.10984   3.13833   3.15332   3.17422   3.17639
 Alpha virt. eigenvalues --    3.22805   3.26400   3.28027   3.33219   3.37159
 Alpha virt. eigenvalues --    3.37727   3.40387   3.41697   3.42641   3.43335
 Alpha virt. eigenvalues --    3.43836   3.44509   3.45521   3.47496   3.49189
 Alpha virt. eigenvalues --    3.56247   3.95417   4.00124   4.08146   4.14593
 Alpha virt. eigenvalues --    4.17073   4.30667   4.35997   4.41787   4.46002
 Alpha virt. eigenvalues --    4.48900   4.51864   4.59240   4.68260   4.71481
          Condensed to atoms (all electrons):
              1          2          3          4          5          6
     1  C    5.141317   0.358043  -0.078661  -0.120693   0.006038  -0.000010
     2  C    0.358043   4.373071   0.577529   0.257864  -0.028475   0.004903
     3  O   -0.078661   0.577529   8.086808  -0.101968  -0.001653   0.001156
     4  N   -0.120693   0.257864  -0.101968   7.107079   0.261647  -0.030197
     5  C    0.006038  -0.028475  -0.001653   0.261647   5.069786   0.288762
     6  C   -0.000010   0.004903   0.001156  -0.030197   0.288762   4.446188
     7  O   -0.000007  -0.000025  -0.000003   0.001649  -0.081811   0.559773
     8  N    0.000001  -0.000046   0.000001   0.002353  -0.108863   0.272824
     9  C    0.000000   0.000004  -0.000005   0.000350   0.000573  -0.027533
    10  C    0.000000   0.000002   0.000000  -0.000054   0.005450  -0.027698
    11  H    0.366998  -0.023336   0.005330   0.004672  -0.000112   0.000001
    12  H    0.363016  -0.021504   0.001535   0.000612  -0.000295  -0.000011
    13  H    0.363483  -0.022140   0.001468   0.003799  -0.000033  -0.000001
    14  H    0.000903  -0.005038   0.020027  -0.036693   0.369904  -0.017294
    15  H   -0.000093  -0.004156   0.003150  -0.048141   0.370793  -0.041300
    16  H    0.000000   0.000007   0.000035   0.000044   0.006945  -0.009598
    17  H    0.000000   0.000000   0.000000  -0.000005  -0.000329   0.002092
    18  H    0.000000   0.000000   0.000000  -0.000009  -0.000282  -0.000356
    19  H    0.000000   0.000000   0.000000   0.000001  -0.000106   0.002662
    20  H    0.000000   0.000000   0.000000  -0.000006   0.001001  -0.003581
    21  H    0.000000   0.000000   0.000000   0.000000  -0.000111  -0.000660
    22  C    0.000531  -0.028858   0.002402   0.261485  -0.041273  -0.000592
    23  H    0.008421  -0.010709   0.000073  -0.031314   0.004807   0.000004
    24  H   -0.000170   0.002823  -0.000098  -0.029460  -0.008883   0.001033
    25  C   -0.002452  -0.002240   0.000082  -0.056752  -0.001747  -0.001360
    26  H   -0.000734   0.004406  -0.000190   0.002950  -0.000611   0.000052
    27  H    0.000116  -0.000571   0.000000  -0.000402   0.003123   0.000544
    28  O    0.000000   0.000015   0.000000   0.002142  -0.000064   0.000018
    29  C    0.000001  -0.000005   0.000000  -0.000134   0.000002  -0.000001
    30  H    0.000000   0.000000   0.000000   0.000001   0.000000   0.000000
    31  H    0.000000   0.000000   0.000000   0.000008   0.000000  -0.000001
    32  H   -0.000001   0.000000   0.000000   0.000010   0.000000   0.000000
              7          8          9         10         11         12
     1  C   -0.000007   0.000001   0.000000   0.000000   0.366998   0.363016
     2  C   -0.000025  -0.000046   0.000004   0.000002  -0.023336  -0.021504
     3  O   -0.000003   0.000001  -0.000005   0.000000   0.005330   0.001535
     4  N    0.001649   0.002353   0.000350  -0.000054   0.004672   0.000612
     5  C   -0.081811  -0.108863   0.000573   0.005450  -0.000112  -0.000295
     6  C    0.559773   0.272824  -0.027533  -0.027698   0.000001  -0.000011
     7  O    8.105297  -0.093255   0.002651  -0.010747   0.000000   0.000000
     8  N   -0.093255   7.022340   0.297082   0.291618   0.000000   0.000000
     9  C    0.002651   0.297082   4.809916  -0.051627   0.000000   0.000000
    10  C   -0.010747   0.291618  -0.051627   4.815410   0.000000   0.000000
    11  H    0.000000   0.000000   0.000000   0.000000   0.550134  -0.023156
    12  H    0.000000   0.000000   0.000000   0.000000  -0.023156   0.578003
    13  H    0.000000   0.000000   0.000000   0.000000  -0.021999  -0.028700
    14  H    0.000113  -0.001105   0.000244  -0.000199  -0.000018  -0.000020
    15  H    0.001886   0.005412  -0.006092  -0.000162   0.000002   0.000044
    16  H    0.000048  -0.027915   0.386023   0.004321   0.000000   0.000000
    17  H   -0.000054  -0.043924   0.384534  -0.003319   0.000000   0.000000
    18  H    0.000020  -0.046279   0.383193  -0.001682   0.000000   0.000000
    19  H    0.000678  -0.044136  -0.002197   0.384183   0.000000   0.000000
    20  H    0.022149  -0.034467   0.004301   0.384888   0.000000   0.000000
    21  H    0.000825  -0.045846  -0.001720   0.388671   0.000000   0.000000
    22  C   -0.016726  -0.000304   0.000009   0.000002   0.000360  -0.000322
    23  H    0.000447  -0.000003   0.000000   0.000000   0.000116  -0.002640
    24  H    0.024747   0.000270  -0.000014   0.000010  -0.000005   0.000127
    25  C    0.000212   0.000051  -0.000005  -0.000001  -0.000004   0.000581
    26  H   -0.000017   0.000000   0.000000   0.000000  -0.000037   0.002986
    27  H    0.000341  -0.000078   0.000000  -0.000002   0.000001  -0.000062
    28  O   -0.000001   0.000000   0.000000   0.000000   0.000000  -0.000045
    29  C    0.000000   0.000000   0.000000   0.000000   0.000000  -0.000001
    30  H    0.000000   0.000000   0.000000   0.000000   0.000000   0.000000
    31  H    0.000000   0.000000   0.000000   0.000000   0.000000   0.000000
    32  H    0.000000   0.000000   0.000000   0.000000   0.000000   0.000003
             13         14         15         16         17         18
     1  C    0.363483   0.000903  -0.000093   0.000000   0.000000   0.000000
     2  C   -0.022140  -0.005038  -0.004156   0.000007   0.000000   0.000000
     3  O    0.001468   0.020027   0.003150   0.000035   0.000000   0.000000
     4  N    0.003799  -0.036693  -0.048141   0.000044  -0.000005  -0.000009
     5  C   -0.000033   0.369904   0.370793   0.006945  -0.000329  -0.000282
     6  C   -0.000001  -0.017294  -0.041300  -0.009598   0.002092  -0.000356
     7  O    0.000000   0.000113   0.001886   0.000048  -0.000054   0.000020
     8  N    0.000000  -0.001105   0.005412  -0.027915  -0.043924  -0.046279
     9  C    0.000000   0.000244  -0.006092   0.386023   0.384534   0.383193
    10  C    0.000000  -0.000199  -0.000162   0.004321  -0.003319  -0.001682
    11  H   -0.021999  -0.000018   0.000002   0.000000   0.000000   0.000000
    12  H   -0.028700  -0.000020   0.000044   0.000000   0.000000   0.000000
    13  H    0.569184  -0.000059  -0.000004   0.000000   0.000000   0.000000
    14  H   -0.000059   0.535576  -0.039758  -0.001060  -0.000021   0.000445
    15  H   -0.000004  -0.039758   0.632052   0.003511   0.000246   0.000180
    16  H    0.000000  -0.001060   0.003511   0.557342  -0.025945  -0.029737
    17  H    0.000000  -0.000021   0.000246  -0.025945   0.607715  -0.046525
    18  H    0.000000   0.000445   0.000180  -0.029737  -0.046525   0.612600
    19  H    0.000000  -0.000009   0.000011   0.000080   0.006687  -0.001906
    20  H    0.000000  -0.000017  -0.000047  -0.000231   0.000049  -0.000151
    21  H    0.000000   0.000045  -0.000011  -0.000078  -0.001934   0.007080
    22  C   -0.004319   0.003609  -0.000844   0.000012   0.000000   0.000000
    23  H    0.001486  -0.000111  -0.000204   0.000000   0.000000   0.000000
    24  H    0.000101   0.000220  -0.000812  -0.000004   0.000001   0.000000
    25  C    0.000241  -0.000165   0.003486  -0.000002   0.000000   0.000000
    26  H    0.000071  -0.000018  -0.000149   0.000000   0.000000   0.000000
    27  H   -0.000011   0.000060   0.000286  -0.000013   0.000001   0.000000
    28  O   -0.000009   0.000000  -0.000039   0.000000   0.000000   0.000000
    29  C    0.000000   0.000000   0.000005   0.000000   0.000000   0.000000
    30  H    0.000000   0.000000   0.000000   0.000000   0.000000   0.000000
    31  H    0.000000   0.000000   0.000001   0.000000   0.000000   0.000000
    32  H    0.000000   0.000000   0.000000   0.000000   0.000000   0.000000
             19         20         21         22         23         24
     1  C    0.000000   0.000000   0.000000   0.000531   0.008421  -0.000170
     2  C    0.000000   0.000000   0.000000  -0.028858  -0.010709   0.002823
     3  O    0.000000   0.000000   0.000000   0.002402   0.000073  -0.000098
     4  N    0.000001  -0.000006   0.000000   0.261485  -0.031314  -0.029460
     5  C   -0.000106   0.001001  -0.000111  -0.041273   0.004807  -0.008883
     6  C    0.002662  -0.003581  -0.000660  -0.000592   0.000004   0.001033
     7  O    0.000678   0.022149   0.000825  -0.016726   0.000447   0.024747
     8  N   -0.044136  -0.034467  -0.045846  -0.000304  -0.000003   0.000270
     9  C   -0.002197   0.004301  -0.001720   0.000009   0.000000  -0.000014
    10  C    0.384183   0.384888   0.388671   0.000002   0.000000   0.000010
    11  H    0.000000   0.000000   0.000000   0.000360   0.000116  -0.000005
    12  H    0.000000   0.000000   0.000000  -0.000322  -0.002640   0.000127
    13  H    0.000000   0.000000   0.000000  -0.004319   0.001486   0.000101
    14  H   -0.000009  -0.000017   0.000045   0.003609  -0.000111   0.000220
    15  H    0.000011  -0.000047  -0.000011  -0.000844  -0.000204  -0.000812
    16  H    0.000080  -0.000231  -0.000078   0.000012   0.000000  -0.000004
    17  H    0.006687   0.000049  -0.001934   0.000000   0.000000   0.000001
    18  H   -0.001906  -0.000151   0.007080   0.000000   0.000000   0.000000
    19  H    0.611420  -0.022514  -0.044464   0.000000   0.000000   0.000001
    20  H   -0.022514   0.514745  -0.027349   0.000007   0.000000   0.000011
    21  H   -0.044464  -0.027349   0.610673   0.000000   0.000000  -0.000001
    22  C    0.000000   0.000007   0.000000   4.940442   0.373038   0.372224
    23  H    0.000000   0.000000   0.000000   0.373038   0.603249  -0.024302
    24  H    0.000001   0.000011  -0.000001   0.372224  -0.024302   0.529184
    25  C    0.000000  -0.000001   0.000000   0.352081  -0.045657  -0.041721
    26  H    0.000000   0.000000   0.000000  -0.040744  -0.008366   0.005929
    27  H   -0.000001  -0.000001   0.000000  -0.036299   0.006771  -0.007965
    28  O    0.000000   0.000000   0.000000  -0.039557   0.005658   0.005371
    29  C    0.000000   0.000000   0.000000   0.004347  -0.000119  -0.000112
    30  H    0.000000   0.000000   0.000000  -0.000244   0.000005   0.000008
    31  H    0.000000   0.000000   0.000000   0.000074   0.000057  -0.000063
    32  H    0.000000   0.000000   0.000000   0.000022  -0.000064   0.000042
             25         26         27         28         29         30
     1  C   -0.002452  -0.000734   0.000116   0.000000   0.000001   0.000000
     2  C   -0.002240   0.004406  -0.000571   0.000015  -0.000005   0.000000
     3  O    0.000082  -0.000190   0.000000   0.000000   0.000000   0.000000
     4  N   -0.056752   0.002950  -0.000402   0.002142  -0.000134   0.000001
     5  C   -0.001747  -0.000611   0.003123  -0.000064   0.000002   0.000000
     6  C   -0.001360   0.000052   0.000544   0.000018  -0.000001   0.000000
     7  O    0.000212  -0.000017   0.000341  -0.000001   0.000000   0.000000
     8  N    0.000051   0.000000  -0.000078   0.000000   0.000000   0.000000
     9  C   -0.000005   0.000000   0.000000   0.000000   0.000000   0.000000
    10  C   -0.000001   0.000000  -0.000002   0.000000   0.000000   0.000000
    11  H   -0.000004  -0.000037   0.000001   0.000000   0.000000   0.000000
    12  H    0.000581   0.002986  -0.000062  -0.000045  -0.000001   0.000000
    13  H    0.000241   0.000071  -0.000011  -0.000009   0.000000   0.000000
    14  H   -0.000165  -0.000018   0.000060   0.000000   0.000000   0.000000
    15  H    0.003486  -0.000149   0.000286  -0.000039   0.000005   0.000000
    16  H   -0.000002   0.000000  -0.000013   0.000000   0.000000   0.000000
    17  H    0.000000   0.000000   0.000001   0.000000   0.000000   0.000000
    18  H    0.000000   0.000000   0.000000   0.000000   0.000000   0.000000
    19  H    0.000000   0.000000  -0.000001   0.000000   0.000000   0.000000
    20  H   -0.000001   0.000000  -0.000001   0.000000   0.000000   0.000000
    21  H    0.000000   0.000000   0.000000   0.000000   0.000000   0.000000
    22  C    0.352081  -0.040744  -0.036299  -0.039557   0.004347  -0.000244
    23  H   -0.045657  -0.008366   0.006771   0.005658  -0.000119   0.000005
    24  H   -0.041721   0.005929  -0.007965   0.005371  -0.000112   0.000008
    25  C    4.800334   0.357496   0.359429   0.234985  -0.033805   0.005503
    26  H    0.357496   0.699648  -0.064413  -0.039282  -0.006215  -0.000110
    27  H    0.359429  -0.064413   0.695596  -0.039126  -0.006774  -0.000111
    28  O    0.234985  -0.039282  -0.039126   8.199432   0.259033  -0.032919
    29  C   -0.033805  -0.006215  -0.006774   0.259033   4.708473   0.394650
    30  H    0.005503  -0.000110  -0.000111  -0.032919   0.394650   0.585522
    31  H   -0.009424  -0.002659   0.014005  -0.037628   0.369911  -0.034754
    32  H   -0.009226   0.013154  -0.002883  -0.037504   0.369483  -0.035224
             31         32
     1  C    0.000000  -0.000001
     2  C    0.000000   0.000000
     3  O    0.000000   0.000000
     4  N    0.000008   0.000010
     5  C    0.000000   0.000000
     6  C   -0.000001   0.000000
     7  O    0.000000   0.000000
     8  N    0.000000   0.000000
     9  C    0.000000   0.000000
    10  C    0.000000   0.000000
    11  H    0.000000   0.000000
    12  H    0.000000   0.000003
    13  H    0.000000   0.000000
    14  H    0.000000   0.000000
    15  H    0.000001   0.000000
    16  H    0.000000   0.000000
    17  H    0.000000   0.000000
    18  H    0.000000   0.000000
    19  H    0.000000   0.000000
    20  H    0.000000   0.000000
    21  H    0.000000   0.000000
    22  C    0.000074   0.000022
    23  H    0.000057  -0.000064
    24  H   -0.000063   0.000042
    25  C   -0.009424  -0.009226
    26  H   -0.002659   0.013154
    27  H    0.014005  -0.002883
    28  O   -0.037628  -0.037504
    29  C    0.369911   0.369483
    30  H   -0.034754  -0.035224
    31  H    0.661682  -0.052956
    32  H   -0.052956   0.664474
 Mulliken atomic charges:
              1
     1  C   -0.406048
     2  C    0.568434
     3  O   -0.517019
     4  N   -0.450841
     5  C   -0.114184
     6  C    0.580182
     7  O   -0.518187
     8  N   -0.445730
     9  C   -0.179686
    10  C   -0.179063
    11  H    0.141053
    12  H    0.129852
    13  H    0.137441
    14  H    0.170440
    15  H    0.120747
    16  H    0.136216
    17  H    0.120731
    18  H    0.123409
    19  H    0.109609
    20  H    0.161214
    21  H    0.114881
    22  C   -0.100564
    23  H    0.119357
    24  H    0.171512
    25  C    0.090079
    26  H    0.076853
    27  H    0.078437
    28  O   -0.480480
    29  C   -0.058737
    30  H    0.117673
    31  H    0.091747
    32  H    0.090670
 Sum of Mulliken atomic charges =   0.00000
 Mulliken charges with hydrogens summed into heavy atoms:
              1
     1  C    0.002298
     2  C    0.568434
     3  O   -0.517019
     4  N   -0.450841
     5  C    0.177003
     6  C    0.580182
     7  O   -0.518187
     8  N   -0.445730
     9  C    0.200669
    10  C    0.206641
    22  C    0.190306
    25  C    0.245368
    28  O   -0.480480
    29  C    0.241354
 Sum of Mulliken charges with hydrogens summed into heavy atoms =   0.00000
 Electronic spatial extent (au):  <R**2>=           3787.0804
 Charge=              0.0000 electrons
 Dipole moment (field-independent basis, Debye):
    X=              1.1070    Y=             -2.1189    Z=              2.5465  Tot=              3.4928
 Quadrupole moment (field-independent basis, Debye-Ang):
   XX=            -68.4990   YY=            -92.5396   ZZ=            -87.9677
   XY=              0.2613   XZ=              3.6681   YZ=             -7.9958
 Traceless Quadrupole moment (field-independent basis, Debye-Ang):
   XX=             14.5031   YY=             -9.5375   ZZ=             -4.9656
   XY=              0.2613   XZ=              3.6681   YZ=             -7.9958
 Octapole moment (field-independent basis, Debye-Ang**2):
  XXX=             30.2004  YYY=            -51.8634  ZZZ=              4.7324  XYY=             -5.9056
  XXY=             -2.0812  XXZ=             13.9837  XZZ=             -3.3582  YZZ=             -1.1819
  YYZ=             -8.7281  XYZ=             12.1516
 Hexadecapole moment (field-independent basis, Debye-Ang**3):
 XXXX=          -2709.8783 YYYY=          -1626.1560 ZZZZ=           -429.2470 XXXY=             -7.8029
 XXXZ=            -10.1174 YYYX=             55.7913 YYYZ=            -52.9438 ZZZX=             18.7186
 ZZZY=              3.8386 XXYY=           -663.9275 XXZZ=           -542.3866 YYZZ=           -336.5592
 XXYZ=            -18.0148 YYXZ=             -8.7216 ZZXY=              6.0295
 N-N= 9.627429317754D+02 E-N=-3.531235800590D+03  KE= 6.826175538577D+02
 Calling FoFJK, ICntrl=      2127 FMM=F ISym2X=0 I1Cent= 0 IOpClX= 0 NMat=1 NMatS=1 NMatT=0.
 ***** Axes restored to original set *****
 -------------------------------------------------------------------
 Center     Atomic                   Forces (Hartrees/Bohr)
 Number     Number              X              Y              Z
 -------------------------------------------------------------------
      1        6           0.000001250   -0.000001678    0.000003392
      2        6          -0.001653145    0.002066220    0.003244080
      3        8           0.000000458    0.000001300    0.000006035
      4        7           0.001704411   -0.001565637   -0.003466572
      5        6           0.001235360   -0.003366040   -0.001986172
      6        6          -0.001284149    0.002858858    0.002221347
      7        8          -0.000000870   -0.000002591   -0.000002686
      8        7           0.000000585    0.000003067   -0.000000652
      9        6          -0.000000730    0.000002549    0.000000770
     10        6          -0.000001253    0.000000067   -0.000000422
     11        1           0.000000859   -0.000001517    0.000006609
     12        1           0.000000561   -0.000001276    0.000003219
     13        1           0.000001307   -0.000004385    0.000004483
     14        1           0.000000041    0.000001210    0.000004280
     15        1           0.000000673    0.000003647    0.000001943
     16        1           0.000000744    0.000005175    0.000003173
     17        1          -0.000000926    0.000005077    0.000000677
     18        1           0.000000136    0.000003339    0.000003191
     19        1          -0.000000102    0.000001158   -0.000002556
     20        1          -0.000000170   -0.000002997   -0.000002272
     21        1           0.000000740   -0.000000792    0.000000170
     22        6           0.000000082   -0.000001460   -0.000001265
     23        1           0.000000002   -0.000004114    0.000000128
     24        1           0.000000508   -0.000003551   -0.000001212
     25        6          -0.000001694   -0.000000148   -0.000001536
     26        1          -0.000000336    0.000001339   -0.000000992
     27        1          -0.000000199    0.000001581   -0.000003133
     28        8           0.000000463   -0.000001581   -0.000005492
     29        6          -0.000001487    0.000000755   -0.000006084
     30        1          -0.000000951   -0.000001149   -0.000008734
     31        1          -0.000001270    0.000001871   -0.000007849
     32        1          -0.000000896    0.000001701   -0.000005866
 -------------------------------------------------------------------
 Cartesian Forces:  Max     0.003466572 RMS     0.000832028

 GradGradGradGradGradGradGradGradGradGradGradGradGradGradGradGradGradGrad
 Berny optimization.
 Internal  Forces:  Max     0.003868579 RMS     0.000517527
 Search for a local minimum.
 Step number   1 out of a maximum of  155 on scan point     1 out of    37
 All quantities printed in internal units (Hartrees-Bohrs-Radians)
 Mixed Optimization -- En-DIIS/RFO-DIIS
 Second derivative matrix not updated -- first step.
 ITU=  0
     Eigenvalues ---    0.00343   0.00473   0.00739   0.00789   0.00931
     Eigenvalues ---    0.00957   0.01047   0.01256   0.01309   0.01526
     Eigenvalues ---    0.01534   0.01879   0.02004   0.02650   0.04093
     Eigenvalues ---    0.05342   0.05430   0.05813   0.06295   0.06926
     Eigenvalues ---    0.07247   0.07460   0.07470   0.07475   0.07636
     Eigenvalues ---    0.09516   0.10035   0.10440   0.10509   0.11129
     Eigenvalues ---    0.11287   0.12916   0.13606   0.16000   0.16000
     Eigenvalues ---    0.16000   0.16000   0.16000   0.16000   0.16000
     Eigenvalues ---    0.16000   0.16000   0.16000   0.16000   0.16000
     Eigenvalues ---    0.21914   0.21979   0.21989   0.22111   0.23279
     Eigenvalues ---    0.24354   0.24662   0.24975   0.24999   0.25000
     Eigenvalues ---    0.25000   0.25000   0.29240   0.29265   0.30161
     Eigenvalues ---    0.33185   0.33270   0.33515   0.33531   0.33792
     Eigenvalues ---    0.33819   0.33878   0.34070   0.34152   0.34307
     Eigenvalues ---    0.34323   0.34442   0.34534   0.34789   0.34869
     Eigenvalues ---    0.35050   0.35097   0.35118   0.35953   0.36413
     Eigenvalues ---    0.37276   0.37526   0.43609   0.43700   0.48050
     Eigenvalues ---    0.49765   0.91863   0.918821000.000001000.00000
     Eigenvalues --- 1000.000001000.000001000.000001000.000001000.00000
     Eigenvalues --- 1000.000001000.000001000.000001000.000001000.00000
     Eigenvalues --- 1000.000001000.000001000.000001000.000001000.00000
     Eigenvalues --- 1000.000001000.000001000.000001000.000001000.00000
     Eigenvalues --- 1000.000001000.000001000.000001000.000001000.00000
     Eigenvalues --- 1000.000001000.000001000.000001000.000001000.00000
     Eigenvalues --- 1000.000001000.000001000.000001000.000001000.00000
     Eigenvalues --- 1000.000001000.000001000.000001000.000001000.00000
     Eigenvalues --- 1000.000001000.000001000.000001000.000001000.00000
     Eigenvalues --- 1000.000001000.000001000.000001000.000001000.00000
     Eigenvalues --- 1000.000001000.000001000.000001000.000001000.00000
 RFO step:  Lambda= 0.00000000D+00 EMin= 3.42760355D-03
 Linear search not attempted -- first point.
 Iteration  1 RMS(Cart)=  0.00003250 RMS(Int)=  0.00000000
 Iteration  2 RMS(Cart)=  0.00000000 RMS(Int)=  0.00000000
 Iteration  1 RMS(Cart)=  0.00000000 RMS(Int)=  0.00000000
 Variable       Old X    -DE/DX   Delta X   Delta X   Delta X     New X
                                 (Linear)    (Quad)   (Total)
    R1        2.87644   0.00000   0.00000   0.00000   0.00000   2.87644
    R2        2.05888   0.00000   0.00000   0.00000   0.00000   2.05887
    R3        2.06816   0.00000   0.00000   0.00000   0.00000   2.06816
    R4        2.06788   0.00000   0.00000   0.00000   0.00000   2.06788
    R5        2.32086   0.00000   0.00000   0.00000   0.00000   2.32086
    R6        2.61885   0.00000   0.00000   0.00000   0.00000   2.61885
    R7        2.76740   0.00000   0.00000   0.00000   0.00000   2.76740
    R8        2.77455   0.00000   0.00000   0.00000   0.00000   2.77455
    R9        2.89453   0.00000   0.00000   0.00000   0.00000   2.89453
   R10        2.06590   0.00000   0.00000   0.00000   0.00000   2.06591
   R11        2.07683   0.00000   0.00000   0.00000   0.00000   2.07683
   R12        2.32077   0.00000   0.00000   0.00000   0.00000   2.32077
   R13        2.60103   0.00000   0.00000   0.00000   0.00000   2.60103
   R14        2.75061   0.00000   0.00000   0.00000   0.00000   2.75061
   R15        2.75433   0.00000   0.00000   0.00000   0.00000   2.75433
   R16        2.05484   0.00000   0.00000   0.00000   0.00000   2.05484
   R17        2.07213   0.00000   0.00000   0.00000   0.00000   2.07213
   R18        2.07636   0.00000   0.00000   0.00000   0.00000   2.07636
   R19        2.07074   0.00000   0.00000   0.00000   0.00000   2.07074
   R20        2.05593   0.00000   0.00000   0.00000   0.00000   2.05593
   R21        2.07537   0.00000   0.00000   0.00000   0.00000   2.07537
   R22        2.06018   0.00000   0.00000   0.00000   0.00000   2.06018
   R23        2.05517   0.00000   0.00000   0.00000   0.00000   2.05517
   R24        2.89504   0.00000   0.00000   0.00000   0.00000   2.89504
   R25        2.08727   0.00000   0.00000   0.00000   0.00000   2.08727
   R26        2.08581   0.00000   0.00000   0.00000   0.00000   2.08581
   R27        2.66925   0.00000   0.00000   0.00000   0.00000   2.66925
   R28        2.66815   0.00000   0.00000   0.00000   0.00000   2.66815
   R29        2.06438   0.00000   0.00000   0.00000   0.00000   2.06438
   R30        2.08128   0.00000   0.00000   0.00000   0.00000   2.08128
   R31        2.08156   0.00000   0.00000   0.00000   0.00000   2.08156
    A1        1.86809   0.00000   0.00000   0.00000   0.00000   1.86809
    A2        1.95955   0.00000   0.00000   0.00000   0.00000   1.95955
    A3        1.94840   0.00000   0.00000   0.00000   0.00000   1.94840
    A4        1.89968   0.00000   0.00000   0.00000   0.00000   1.89968
    A5        1.90719   0.00000   0.00000   0.00000   0.00000   1.90719
    A6        1.88019   0.00000   0.00000   0.00000   0.00000   1.88018
    A7        2.10461   0.00000   0.00000   0.00000   0.00000   2.10460
    A8        2.05856   0.00000   0.00000   0.00001   0.00001   2.05857
    A9        2.11895   0.00000   0.00000   0.00000   0.00000   2.11894
   A10        1.98298  -0.00028   0.00000   0.00000   0.00000   1.98297
   A11        2.11120   0.00097   0.00000   0.00000   0.00000   2.11120
   A12        2.09347  -0.00019   0.00000   0.00000   0.00000   2.09347
   A13        2.01548   0.00005   0.00000   0.00001   0.00001   2.01549
   A14        1.86019  -0.00016   0.00000   0.00000   0.00000   1.86019
   A15        1.91886   0.00011   0.00000  -0.00001  -0.00001   1.91885
   A16        1.91176  -0.00168   0.00000   0.00000   0.00000   1.91175
   A17        1.90933   0.00159   0.00000   0.00001   0.00001   1.90934
   A18        1.83961   0.00000   0.00000  -0.00001  -0.00001   1.83960
   A19        2.14204   0.00000   0.00000   0.00000   0.00000   2.14204
   A20        2.02098   0.00000   0.00000   0.00000   0.00000   2.02098
   A21        2.12014   0.00000   0.00000   0.00000   0.00000   2.12013
   A22        2.19436   0.00000   0.00000   0.00000   0.00000   2.19436
   A23        2.06506   0.00000   0.00000  -0.00001  -0.00001   2.06506
   A24        2.00366   0.00000   0.00000   0.00001   0.00001   2.00366
   A25        1.95447   0.00000   0.00000   0.00000   0.00000   1.95446
   A26        1.91836   0.00000   0.00000   0.00000   0.00000   1.91836
   A27        1.93454   0.00000   0.00000   0.00000   0.00000   1.93454
   A28        1.88654   0.00000   0.00000   0.00001   0.00001   1.88655
   A29        1.88583   0.00000   0.00000   0.00000   0.00000   1.88583
   A30        1.88191   0.00000   0.00000   0.00000   0.00000   1.88190
   A31        1.91535   0.00000   0.00000   0.00000   0.00000   1.91535
   A32        1.89801   0.00000   0.00000   0.00000   0.00000   1.89801
   A33        1.93842   0.00000   0.00000   0.00000   0.00000   1.93842
   A34        1.91909   0.00000   0.00000  -0.00001  -0.00001   1.91909
   A35        1.89081   0.00000   0.00000   0.00000   0.00000   1.89081
   A36        1.90217   0.00000   0.00000   0.00000   0.00000   1.90217
   A37        1.90165   0.00000   0.00000   0.00000   0.00000   1.90165
   A38        1.89249   0.00000   0.00000   0.00000   0.00000   1.89249
   A39        1.97748   0.00000   0.00000   0.00000   0.00000   1.97748
   A40        1.87547   0.00000   0.00000   0.00000   0.00000   1.87547
   A41        1.89752   0.00000   0.00000   0.00000   0.00000   1.89752
   A42        1.91654   0.00000   0.00000   0.00000   0.00000   1.91655
   A43        1.93316   0.00000   0.00000  -0.00001  -0.00001   1.93315
   A44        1.92983   0.00000   0.00000   0.00000   0.00000   1.92984
   A45        1.86959   0.00000   0.00000   0.00001   0.00001   1.86960
   A46        1.86666   0.00000   0.00000   0.00000   0.00000   1.86665
   A47        1.93484   0.00000   0.00000   0.00000   0.00000   1.93484
   A48        1.93066   0.00000   0.00000   0.00000   0.00000   1.93066
   A49        1.97400   0.00000   0.00000   0.00000   0.00000   1.97400
   A50        1.87240   0.00000   0.00000   0.00000   0.00000   1.87240
   A51        1.95115   0.00000   0.00000   0.00000   0.00000   1.95116
   A52        1.95215   0.00000   0.00000   0.00000   0.00000   1.95215
   A53        1.89951   0.00000   0.00000   0.00000   0.00000   1.89951
   A54        1.89955   0.00000   0.00000   0.00000   0.00000   1.89955
   A55        1.88797   0.00000   0.00000   0.00000   0.00000   1.88797
    D1        0.05081   0.00000   0.00000   0.00000   0.00000   0.05082
    D2       -3.04178   0.00000   0.00000  -0.00001  -0.00001  -3.04179
    D3       -2.03268   0.00000   0.00000   0.00000   0.00000  -2.03268
    D4        1.15792   0.00000   0.00000  -0.00002  -0.00002   1.15790
    D5        2.13704   0.00000   0.00000   0.00000   0.00000   2.13704
    D6       -0.95555   0.00000   0.00000  -0.00002  -0.00002  -0.95556
    D7       -3.06009  -0.00053   0.00000   0.00002   0.00002  -3.06008
    D8       -0.37479   0.00053   0.00000   0.00001   0.00001  -0.37478
    D9        0.13093  -0.00053   0.00000   0.00000   0.00000   0.13093
   D10        2.81623   0.00053   0.00000  -0.00001  -0.00001   2.81622
   D11       -2.81574   0.00387   0.00000   0.00000   0.00000  -2.81574
   D12       -0.68826   0.00162   0.00000   0.00000   0.00000  -0.68826
   D13        1.29713   0.00159   0.00000  -0.00001  -0.00001   1.29712
   D14        0.77706   0.00249   0.00000   0.00001   0.00001   0.77707
   D15        2.90454   0.00025   0.00000   0.00001   0.00001   2.90455
   D16       -1.39325   0.00022   0.00000   0.00000   0.00000  -1.39326
   D17        0.69171  -0.00056   0.00000   0.00003   0.00003   0.69174
   D18        2.72794  -0.00056   0.00000   0.00002   0.00002   2.72797
   D19       -1.42292  -0.00056   0.00000   0.00003   0.00003  -1.42289
   D20       -2.93456   0.00056   0.00000   0.00002   0.00002  -2.93454
   D21       -0.89833   0.00056   0.00000   0.00002   0.00002  -0.89832
   D22        1.23400   0.00056   0.00000   0.00002   0.00002   1.23402
   D23        0.19533  -0.00099   0.00000   0.00002   0.00002   0.19534
   D24       -2.95412  -0.00099   0.00000   0.00000   0.00000  -2.95412
   D25       -1.90427   0.00047   0.00000   0.00001   0.00001  -1.90426
   D26        1.22946   0.00047   0.00000   0.00000   0.00000   1.22946
   D27        2.37060   0.00051   0.00000   0.00002   0.00002   2.37062
   D28       -0.77885   0.00051   0.00000   0.00000   0.00000  -0.77885
   D29       -0.18923   0.00000   0.00000   0.00002   0.00002  -0.18921
   D30       -3.10486   0.00000   0.00000   0.00001   0.00001  -3.10486
   D31        2.94461   0.00000   0.00000   0.00001   0.00001   2.94462
   D32        0.02898   0.00000   0.00000  -0.00001  -0.00001   0.02897
   D33        0.25361   0.00000   0.00000  -0.00001  -0.00001   0.25360
   D34        2.35079   0.00000   0.00000  -0.00001  -0.00001   2.35078
   D35       -1.85377   0.00000   0.00000  -0.00001  -0.00001  -1.85377
   D36       -3.10699   0.00000   0.00000   0.00000   0.00000  -3.10700
   D37       -1.00982   0.00000   0.00000   0.00000   0.00000  -1.00981
   D38        1.06881   0.00000   0.00000   0.00000   0.00000   1.06882
   D39       -2.35545   0.00000   0.00000   0.00000   0.00000  -2.35545
   D40       -0.25558   0.00000   0.00000  -0.00001  -0.00001  -0.25559
   D41        1.83753   0.00000   0.00000  -0.00001  -0.00001   1.83753
   D42        0.98787   0.00000   0.00000  -0.00001  -0.00001   0.98785
   D43        3.08773   0.00000   0.00000  -0.00002  -0.00002   3.08772
   D44       -1.10234   0.00000   0.00000  -0.00002  -0.00002  -1.10235
   D45        0.97396   0.00000   0.00000   0.00000   0.00000   0.97396
   D46       -1.09216   0.00000   0.00000   0.00000   0.00000  -1.09216
   D47        3.08601   0.00000   0.00000   0.00000   0.00000   3.08601
   D48       -1.14299   0.00000   0.00000   0.00000   0.00000  -1.14299
   D49        3.07407   0.00000   0.00000   0.00001   0.00001   3.07407
   D50        0.96906   0.00000   0.00000   0.00000   0.00000   0.96906
   D51        3.09284   0.00000   0.00000   0.00000   0.00000   3.09284
   D52        1.02671   0.00000   0.00000   0.00001   0.00001   1.02672
   D53       -1.07830   0.00000   0.00000   0.00000   0.00000  -1.07830
   D54        3.09908   0.00000   0.00000   0.00001   0.00001   3.09909
   D55       -1.07312   0.00000   0.00000   0.00000   0.00000  -1.07312
   D56        0.99460   0.00000   0.00000   0.00000   0.00000   0.99460
   D57        3.14033   0.00000   0.00000   0.00002   0.00002   3.14034
   D58       -1.06170   0.00000   0.00000   0.00002   0.00002  -1.06168
   D59        1.05854   0.00000   0.00000   0.00002   0.00002   1.05856
         Item               Value     Threshold  Converged?
 Maximum Force            0.000002     0.000450     YES
 RMS     Force            0.000001     0.000300     YES
 Maximum Displacement     0.000112     0.001800     YES
 RMS     Displacement     0.000033     0.001200     YES
 Predicted change in Energy=-1.190784D-10
 Optimization completed.
    -- Stationary point found.
                           ----------------------------
                           !   Optimized Parameters   !
                           ! (Angstroms and Degrees)  !
 --------------------------                            --------------------------
 ! Name  Definition              Value          Derivative Info.                !
 --------------------------------------------------------------------------------
 ! R1    R(1,2)                  1.5221         -DE/DX =    0.0                 !
 ! R2    R(1,11)                 1.0895         -DE/DX =    0.0                 !
 ! R3    R(1,12)                 1.0944         -DE/DX =    0.0                 !
 ! R4    R(1,13)                 1.0943         -DE/DX =    0.0                 !
 ! R5    R(2,3)                  1.2281         -DE/DX =    0.0                 !
 ! R6    R(2,4)                  1.3858         -DE/DX =    0.0                 !
 ! R7    R(4,5)                  1.4644         -DE/DX =    0.0                 !
 ! R8    R(4,22)                 1.4682         -DE/DX =    0.0                 !
 ! R9    R(5,6)                  1.5317         -DE/DX =    0.0                 !
 ! R10   R(5,14)                 1.0932         -DE/DX =    0.0                 !
 ! R11   R(5,15)                 1.099          -DE/DX =    0.0                 !
 ! R12   R(6,7)                  1.2281         -DE/DX =    0.0                 !
 ! R13   R(6,8)                  1.3764         -DE/DX =    0.0                 !
 ! R14   R(8,9)                  1.4556         -DE/DX =    0.0                 !
 ! R15   R(8,10)                 1.4575         -DE/DX =    0.0                 !
 ! R16   R(9,16)                 1.0874         -DE/DX =    0.0                 !
 ! R17   R(9,17)                 1.0965         -DE/DX =    0.0                 !
 ! R18   R(9,18)                 1.0988         -DE/DX =    0.0                 !
 ! R19   R(10,19)                1.0958         -DE/DX =    0.0                 !
 ! R20   R(10,20)                1.088          -DE/DX =    0.0                 !
 ! R21   R(10,21)                1.0982         -DE/DX =    0.0                 !
 ! R22   R(22,23)                1.0902         -DE/DX =    0.0                 !
 ! R23   R(22,24)                1.0875         -DE/DX =    0.0                 !
 ! R24   R(22,25)                1.532          -DE/DX =    0.0                 !
 ! R25   R(25,26)                1.1045         -DE/DX =    0.0                 !
 ! R26   R(25,27)                1.1038         -DE/DX =    0.0                 !
 ! R27   R(25,28)                1.4125         -DE/DX =    0.0                 !
 ! R28   R(28,29)                1.4119         -DE/DX =    0.0                 !
 ! R29   R(29,30)                1.0924         -DE/DX =    0.0                 !
 ! R30   R(29,31)                1.1014         -DE/DX =    0.0                 !
 ! R31   R(29,32)                1.1015         -DE/DX =    0.0                 !
 ! A1    A(2,1,11)             107.0337         -DE/DX =    0.0                 !
 ! A2    A(2,1,12)             112.2737         -DE/DX =    0.0                 !
 ! A3    A(2,1,13)             111.6348         -DE/DX =    0.0                 !
 ! A4    A(11,1,12)            108.8435         -DE/DX =    0.0                 !
 ! A5    A(11,1,13)            109.274          -DE/DX =    0.0                 !
 ! A6    A(12,1,13)            107.7267         -DE/DX =    0.0                 !
 ! A7    A(1,2,3)              120.585          -DE/DX =    0.0                 !
 ! A8    A(1,2,4)              117.947          -DE/DX =    0.0                 !
 ! A9    A(3,2,4)              121.4067         -DE/DX =    0.0                 !
 ! A10   A(2,4,5)              113.6162         -DE/DX =   -0.0003              !
 ! A11   A(2,4,22)             120.9627         -DE/DX =    0.001               !
 ! A12   A(5,4,22)             119.9471         -DE/DX =   -0.0002              !
 ! A13   A(4,5,6)              115.4785         -DE/DX =    0.0                 !
 ! A14   A(4,5,14)             106.5812         -DE/DX =   -0.0002              !
 ! A15   A(4,5,15)             109.9425         -DE/DX =    0.0001              !
 ! A16   A(6,5,14)             109.5356         -DE/DX =   -0.0017              !
[...]
   D17        0.45450   0.00014   0.00000  -0.00034  -0.00035   0.45415
   D18        2.48302  -0.00024   0.00000  -0.00474  -0.00475   2.47827
   D19       -1.65874   0.00067   0.00000   0.00255   0.00255  -1.65619
   D20       -2.76905   0.00090   0.00000   0.07100   0.07101  -2.69804
   D21       -0.74053   0.00051   0.00000   0.06661   0.06660  -0.67393
   D22        1.40089   0.00143   0.00000   0.07390   0.07391   1.47480
   D23        1.15309  -0.00571   0.00000   0.03397   0.03399   1.18707
   D24       -1.90693  -0.00982   0.00000   0.00000   0.00000  -1.90692
   D25       -0.98093   0.00373   0.00000   0.10612   0.10613  -0.87479
   D26        2.24224  -0.00038   0.00000   0.07215   0.07215   2.31439
   D27       -3.00611   0.00379   0.00000   0.10291   0.10266  -2.90345
   D28        0.21706  -0.00032   0.00000   0.06894   0.06868   0.28574
   D29       -0.08399   0.00033   0.00000  -0.06373  -0.06366  -0.14764
   D30       -3.06398   0.00091   0.00000  -0.00669  -0.00654  -3.07052
   D31        3.14134  -0.00373   0.00000  -0.09810  -0.09825   3.04309
   D32        0.16135  -0.00315   0.00000  -0.04106  -0.04114   0.12021
   D33        0.52496   0.00000   0.00000   0.00580   0.00579   0.53075
   D34        2.59247   0.00023   0.00000   0.00852   0.00851   2.60098
   D35       -1.61236   0.00007   0.00000   0.00513   0.00513  -1.60724
   D36       -2.77386  -0.00054   0.00000  -0.04945  -0.04944  -2.82331
   D37       -0.70635  -0.00030   0.00000  -0.04673  -0.04672  -0.75307
   D38        1.37200  -0.00046   0.00000  -0.05012  -0.05011   1.32190
   D39       -2.20364  -0.00016   0.00000  -0.03391  -0.03387  -2.23751
   D40       -0.10819  -0.00033   0.00000  -0.03129  -0.03124  -0.13943
   D41        1.98837  -0.00021   0.00000  -0.03205  -0.03201   1.95636
   D42        1.08112   0.00031   0.00000   0.01617   0.01613   1.09725
   D43       -3.10661   0.00015   0.00000   0.01880   0.01875  -3.08786
   D44       -1.01005   0.00027   0.00000   0.01803   0.01799  -0.99207
   D45        0.99182  -0.00029   0.00000  -0.00788  -0.00789   0.98393
   D46       -1.07016  -0.00053   0.00000  -0.00984  -0.00985  -1.08001
   D47        3.10511  -0.00046   0.00000  -0.01112  -0.01112   3.09399
   D48       -1.12921  -0.00001   0.00000  -0.00604  -0.00604  -1.13525
   D49        3.09199  -0.00025   0.00000  -0.00800  -0.00800   3.08399
   D50        0.98409  -0.00018   0.00000  -0.00928  -0.00927   0.97481
   D51        3.12738   0.00055   0.00000   0.00048   0.00048   3.12787
   D52        1.06540   0.00031   0.00000  -0.00148  -0.00148   1.06392
   D53       -1.04251   0.00038   0.00000  -0.00275  -0.00275  -1.04526
   D54        3.12828   0.00031   0.00000   0.00697   0.00697   3.13525
   D55       -1.05082  -0.00005   0.00000   0.00364   0.00364  -1.04718
   D56        1.02367  -0.00012   0.00000   0.00434   0.00434   1.02801
   D57        3.13923   0.00003   0.00000   0.00429   0.00429  -3.13967
   D58       -1.06278   0.00002   0.00000   0.00426   0.00426  -1.05852
   D59        1.05710   0.00002   0.00000   0.00415   0.00415   1.06125
         Item               Value     Threshold  Converged?
 Maximum Force            0.006243     0.000450     NO 
 RMS     Force            0.001310     0.000300     NO 
 Maximum Displacement     0.341595     0.001800     NO 
 RMS     Displacement     0.095068     0.001200     NO 
 Predicted change in Energy=-1.780725D-03
 GradGradGradGradGradGradGradGradGradGradGradGradGradGradGradGradGradGrad

                          Input orientation:                          
 ---------------------------------------------------------------------
 Center     Atomic      Atomic             Coordinates (Angstroms)
 Number     Number       Type             X           Y           Z
 ---------------------------------------------------------------------
      1          6           0        2.781109    2.284671    0.424173
      2          6           0        1.284328    2.382060    0.162975
      3          8           0        0.769979    3.443012   -0.179124
      4          7           0        0.518727    1.248728    0.330584
      5          6           0       -0.922728    1.455056    0.102010
      6          6           0       -1.789343    0.354759    0.715125
      7          8           0       -1.853529    0.265319    1.938879
      8          7           0       -2.428148   -0.539828   -0.114509
      9          6           0       -2.514772   -0.463208   -1.567371
     10          6           0       -3.319731   -1.521590    0.496310
     11          1           0        3.212477    3.252853    0.172115
     12          1           0        3.264501    1.508701   -0.176774
     13          1           0        2.988650    2.069274    1.477706
     14          1           0       -1.211413    2.384640    0.598743
     15          1           0       -1.103014    1.614676   -0.963944
     16          1           0       -1.644361    0.023695   -2.001772
     17          1           0       -2.558703   -1.480085   -1.970937
     18          1           0       -3.419217    0.067241   -1.897628
     19          1           0       -3.058357   -2.530047    0.156468
     20          1           0       -3.216119   -1.459050    1.577040
     21          1           0       -4.363446   -1.323728    0.218430
     22          6           0        1.072713   -0.053867    0.690510
     23          1           0        2.007683    0.091910    1.232936
     24          1           0        0.393273   -0.558272    1.379893
     25          6           0        1.352901   -0.953958   -0.515859
     26          1           0        2.028711   -0.442717   -1.223317
     27          1           0        0.420149   -1.174725   -1.059554
     28          8           0        1.938602   -2.140808   -0.024317
     29          6           0        2.242442   -3.070314   -1.043108
     30          1           0        2.685207   -3.945620   -0.562592
     31          1           0        1.340757   -3.384416   -1.592379
     32          1           0        2.961784   -2.660555   -1.769329
 ---------------------------------------------------------------------
                    Distance matrix (angstroms):
                    1          2          3          4          5
     1  C    0.000000
     2  C    1.522518   0.000000
     3  O    2.397992   1.227683   0.000000
     4  N    2.490042   1.377926   2.266674   0.000000
     5  C    3.809260   2.394609   2.626073   1.473978   0.000000
     6  C    4.969732   3.723207   4.109393   2.504843   1.528916
     7  O    5.277498   4.180977   4.633191   3.030067   2.378225
     8  N    5.950153   4.732537   5.108346   3.475789   2.508532
     9  C    6.289948   5.052011   5.289175   3.966746   3.000196
    10  C    7.191180   6.045408   6.467550   4.736653   3.842072
    11  H    1.089490   2.115685   2.474940   3.361238   4.509646
    12  H    1.094045   2.190724   3.156613   2.804332   4.196843
    13  H    1.095172   2.175101   3.091075   2.844241   4.191501
    14  H    3.997587   2.533500   2.377213   2.087005   1.092798
    15  H    4.178776   2.749223   2.732555   2.107074   1.092812
    16  H    5.530100   4.338806   4.565393   3.408744   2.644890
    17  H    6.958702   5.851379   6.207060   4.713172   3.948237
    18  H    6.982248   5.632744   5.647871   4.676349   3.486694
    19  H    7.573145   6.556504   7.102549   5.206245   4.521606
    20  H    7.163190   6.083398   6.557690   4.778576   3.990911
    21  H    8.006718   6.755242   7.016545   5.519576   4.424222
    22  C    2.908318   2.501362   3.616085   1.460548   2.570013
    23  H    2.461805   2.629228   3.841315   2.090324   3.424101
    24  H    3.833730   3.304605   4.310767   2.093331   2.723662
    25  C    3.662261   3.405075   4.448205   2.502826   3.370994
    26  H    3.273984   3.233462   4.215879   2.748754   3.750871
    27  H    4.443309   3.859029   4.713919   2.795590   3.173058
    28  O    4.527231   4.573783   5.706898   3.692012   4.597109
    29  C    5.578435   5.665775   6.733352   4.848954   5.639910
    30  H    6.308678   6.521383   7.642449   5.698477   6.528874
    31  H    6.187054   6.027993   6.995488   5.083261   5.604892
    32  H    5.412887   5.654699   6.677296   5.065634   5.960671
                    6          7          8          9         10
     6  C    0.000000
     7  O    1.228696   0.000000
     8  N    1.377190   2.279222   0.000000
     9  C    2.530832   3.641674   1.457458   0.000000
    10  C    2.431184   2.724665   1.460095   2.454977   0.000000
    11  H    5.806204   6.140947   6.803178   7.045304   8.097539
    12  H    5.260077   5.675933   6.050339   6.262762   7.279273
    13  H    5.133255   5.187835   6.219667   6.780385   7.324828
    14  H    2.113756   2.588397   3.246796   3.808022   4.440060
    15  H    2.208554   3.287920   2.668221   2.583561   4.108812
    16  H    2.740831   3.953589   2.119821   1.087838   3.381594
    17  H    3.342679   4.339397   2.085054   1.094913   2.582284
    18  H    3.092836   4.148422   2.128442   1.099302   2.874929
    19  H    3.200719   3.527417   2.105128   2.745711   1.095808
    20  H    2.463431   2.227337   2.080194   3.372079   1.087485
    21  H    3.112882   3.432885   2.114410   2.710568   1.098047
    22  C    2.891184   3.197373   3.624947   4.258596   4.635244
    23  H    3.841174   3.929043   4.678813   5.348128   5.614921
    24  H    2.457509   2.457414   3.192803   4.141513   3.936382
    25  C    3.619635   4.218242   3.824776   4.037996   4.814580
    26  H    4.355579   5.056935   4.593743   4.556538   5.720745
    27  H    3.220351   4.029136   3.067409   3.062335   4.065431
    28  O    4.546670   4.901413   4.651857   5.002790   5.320202
    29  C    5.574747   6.065944   5.392594   5.450041   5.975461
    30  H    6.336199   6.677536   6.160080   6.338498   6.561743
    31  H    5.394769   5.999485   4.947769   4.837271   5.436257
    32  H    6.151246   6.745278   6.023892   5.904387   6.774052
                   11         12         13         14         15
    11  H    0.000000
    12  H    1.779465   0.000000
    13  H    1.776380   1.768514   0.000000
    14  H    4.528422   4.626284   4.302623   0.000000
    15  H    4.753706   4.439151   4.786442   1.745447   0.000000
    16  H    6.224317   5.443601   6.144587   3.538952   1.975187
    17  H    7.765301   6.786868   7.433990   4.832654   3.565194
    18  H    7.642730   7.050619   7.514105   4.059138   2.937876
    19  H    8.530271   7.510065   7.711401   5.268867   4.717776
    20  H    8.093373   7.340426   7.138494   4.444082   4.513269
    21  H    8.851093   8.146436   8.194605   4.881798   4.545618
    22  C    3.972621   2.828027   2.966179   3.342450   3.202349
    23  H    3.545198   2.360968   2.220850   4.002672   4.101406
    24  H    4.891963   3.865170   3.694529   3.441793   3.529043
    25  C    4.650654   3.135902   3.973651   4.354799   3.581924
    26  H    4.123805   2.535836   3.811444   4.670359   3.756041
    27  H    5.377504   4.008792   4.853701   4.252178   3.179610
    28  O    5.545531   3.885893   4.591673   5.548917   4.923209
    29  C    6.511542   4.771008   5.772928   6.661931   5.757385
    30  H    7.255054   5.498550   6.358761   7.523599   6.740073
    31  H    7.118294   5.444936   6.471762   6.678068   5.599810
    32  H    6.229000   4.473317   5.737180   6.962566   5.953891
                   16         17         18         19         20
    16  H    0.000000
    17  H    1.760206   0.000000
    18  H    1.778441   1.772026   0.000000
    19  H    3.630286   2.424443   3.330980   0.000000
    20  H    4.180532   3.608432   3.800543   1.786043   0.000000
    21  H    3.760088   2.841632   2.702603   1.778286   1.783394
    22  C    3.825819   4.722772   5.185611   4.845865   4.599408
    23  H    4.879079   5.795502   6.265163   5.805015   5.460036
    24  H    3.990776   4.559821   5.066408   4.159136   3.725316
    25  C    3.485301   4.206508   5.072005   4.732365   5.050870
    26  H    3.783516   4.762293   5.513136   5.669128   6.031847
    27  H    2.566357   3.130083   4.121356   3.926272   4.500546
    28  O    4.629582   4.944860   6.090238   5.015356   5.440615
    29  C    5.059563   5.142051   6.529076   5.461625   6.265560
    30  H    6.047467   5.963295   7.426261   5.958978   6.751792
    31  H    4.549039   4.356096   5.887653   4.810470   5.875149
    32  H    5.336272   5.648887   6.940785   6.322011   7.127993
                   21         22         23         24         25
    21  H    0.000000
    22  C    5.602431   0.000000
    23  H    6.604887   1.090708   0.000000
    24  H    4.955935   1.091472   1.746611   0.000000
    25  C    5.775165   1.531011   2.140295   2.161326   0.000000
    26  H    6.611694   2.174367   2.513851   3.076478   1.103895
    27  H    4.953607   2.178276   3.062701   2.516275   1.101984
    28  O    6.359431   2.369824   2.563296   2.619975   1.411833
    29  C    6.948367   3.670511   3.903224   3.949775   2.355470
    30  H    7.560940   4.395013   4.470415   4.527730   3.275250
    31  H    6.329565   4.046725   4.529022   4.209421   2.658227
    32  H    7.706963   4.051446   4.183296   4.575417   2.659354
                   26         27         28         29         30
    26  H    0.000000
    27  H    1.774860   0.000000
    28  O    2.080681   2.076231   0.000000
    29  C    2.642428   2.629503   1.412174   0.000000
    30  H    3.624620   3.613214   2.025957   1.092289   0.000000
    31  H    3.043531   2.452378   2.088731   1.101542   1.784084
    32  H    2.467298   3.028428   2.088565   1.101250   1.784405
                   31         32
    31  H    0.000000
    32  H    1.784100   0.000000
 Stoichiometry    C9H18N2O3
 Framework group  C1[X(C9H18N2O3)]
 Deg. of freedom    90
 Full point group                 C1      NOp   1
 Largest Abelian subgroup         C1      NOp   1
 Largest concise Abelian subgroup C1      NOp   1
                         Standard orientation:                         
 ---------------------------------------------------------------------
 Center     Atomic      Atomic             Coordinates (Angstroms)
 Number     Number       Type             X           Y           Z
 ---------------------------------------------------------------------
      1          6           0       -3.459146    0.916208   -0.193431
      2          6           0       -2.127400    1.539901    0.200929
      3          8           0       -2.082253    2.625851    0.771790
      4          7           0       -0.971229    0.857374   -0.109077
      5          6           0        0.266129    1.563604    0.268804
      6          6           0        1.501708    1.039551   -0.463520
      7          8           0        1.596803    1.229297   -1.673745
      8          7           0        2.445587    0.321956    0.237054
      9          6           0        2.493690    0.134179    1.681564
     10          6           0        3.656457   -0.086360   -0.469307
     11          1           0       -4.242930    1.565055    0.196017
     12          1           0       -3.590638   -0.090444    0.214363
     13          1           0       -3.562431    0.852025   -1.281831
     14          1           0        0.157594    2.610710   -0.024450
     15          1           0        0.366833    1.564529    1.356966
     16          1           0        1.500894    0.142006    2.126184
     17          1           0        2.941941   -0.841846    1.894355
     18          1           0        3.109066    0.899793    2.175136
     19          1           0        3.821717   -1.162129   -0.342012
     20          1           0        3.536816    0.145191   -1.525098
     21          1           0        4.532902    0.446017   -0.076717
     22          6           0       -0.955685   -0.457453   -0.744836
     23          1           0       -1.870368   -0.585765   -1.324954
     24          1           0       -0.130692   -0.505075   -1.457879
     25          6           0       -0.851442   -1.616691    0.249798
     26          1           0       -1.675860   -1.565122    0.982095
     27          1           0        0.091308   -1.556803    0.817252
     28          8           0       -0.911360   -2.813790   -0.496283
     29          6           0       -0.816910   -3.971207    0.307273
     30          1           0       -0.870960   -4.834718   -0.359454
     31          1           0        0.134846   -4.008412    0.860600
     32          1           0       -1.640474   -4.031580    1.035866
 ---------------------------------------------------------------------
 Rotational constants (GHZ):      0.6408089      0.5227532      0.3401604
 Standard basis: 6-31G(d,p) (6D, 7F)
 There are   300 symmetry adapted basis functions of A   symmetry.
 Integral buffers will be    131072 words long.
 Raffenetti 2 integral format.
 Two-electron integral symmetry is turned on.
   300 basis functions,   518 primitive gaussians,   300 cartesian basis functions
    55 alpha electrons       55 beta electrons
       nuclear repulsion energy       975.6195543449 Hartrees.
 NAtoms=   32 NActive=   32 NUniq=   32 SFac= 1.00D+00 NAtFMM=   60 NAOKFM=F Big=F
 One-electron integrals computed using PRISM.
 NBasis=   300 RedAO= T  NBF=   300
 NBsUse=   300 1.00D-06 NBFU=   300
 Initial guess read from the read-write file.
 B after Tr=     0.000000    0.000000    0.000000
         Rot=    1.000000    0.000000    0.000000    0.000000 Ang=   0.00 deg.
 Initial guess orbital symmetries:
       Occupied  (A) (A) (A) (A) (A) (A) (A) (A) (A) (A) (A) (A)
                 (A) (A) (A) (A) (A) (A) (A) (A) (A) (A) (A) (A)
                 (A) (A) (A) (A) (A) (A) (A) (A) (A) (A) (A) (A)
                 (A) (A) (A) (A) (A) (A) (A) (A) (A) (A) (A) (A)
                 (A) (A) (A) (A) (A) (A) (A)
       Virtual   (A) (A) (A) (A) (A) (A) (A) (A) (A) (A) (A) (A)
                 (A) (A) (A) (A) (A) (A) (A) (A) (A) (A) (A) (A)
                 (A) (A) (A) (A) (A) (A) (A) (A) (A) (A) (A) (A)
                 (A) (A) (A) (A) (A) (A) (A) (A) (A) (A) (A) (A)
                 (A) (A) (A) (A) (A) (A) (A) (A) (A) (A) (A) (A)
                 (A) (A) (A) (A) (A) (A) (A) (A) (A) (A) (A) (A)
                 (A) (A) (A) (A) (A) (A) (A) (A) (A) (A) (A) (A)
                 (A) (A) (A) (A) (A) (A) (A) (A) (A) (A) (A) (A)
                 (A) (A) (A) (A) (A) (A) (A) (A) (A) (A) (A) (A)
                 (A) (A) (A) (A) (A) (A) (A) (A) (A) (A) (A) (A)
                 (A) (A) (A) (A) (A) (A) (A) (A) (A) (A) (A) (A)
                 (A) (A) (A) (A) (A) (A) (A) (A) (A) (A) (A) (A)
                 (A) (A) (A) (A) (A) (A) (A) (A) (A) (A) (A) (A)
                 (A) (A) (A) (A) (A) (A) (A) (A) (A) (A) (A) (A)
                 (A) (A) (A) (A) (A) (A) (A) (A) (A) (A) (A) (A)
                 (A) (A) (A) (A) (A) (A) (A) (A) (A) (A) (A) (A)
                 (A) (A) (A) (A) (A) (A) (A) (A) (A) (A) (A) (A)
                 (A) (A) (A) (A) (A) (A) (A) (A) (A) (A) (A) (A)
                 (A) (A) (A) (A) (A) (A) (A) (A) (A) (A) (A) (A)
                 (A) (A) (A) (A) (A) (A) (A) (A) (A) (A) (A) (A)
                 (A) (A) (A) (A) (A)
 Harris functional with IExCor=  402 diagonalized for initial guess.
 ExpMin= 1.61D-01 ExpMax= 5.48D+03 ExpMxC= 8.25D+02 IAcc=1 IRadAn=         1 AccDes= 0.00D+00
 HarFok:  IExCor=  402 AccDes= 0.00D+00 IRadAn=         1 IDoV= 1
 ScaDFX=  1.000000  1.000000  1.000000  1.000000
 FoFCou: FMM=F IPFlag=           0 FMFlag=      100000 FMFlg1=           0
         NFxFlg=           0 DoJE=T BraDBF=F KetDBF=T FulRan=T
         Omega=  0.000000  0.000000  1.000000  0.000000  0.000000 ICntrl=     500 IOpCl=  0
         NMat0=    1 NMatS0=    1 NMatT0=    0 NMatD0=    1 NMtDS0=    0 NMtDT0=    0
         I1Cent=           4 NGrid=           0.
 Petite list used in FoFCou.
