 Entering Gaussian System, Link 0=/data/opt/apps/g09-C01/g09
 Initial command:
 /data/opt/apps/g09-C01/l1.exe /tmp/g09-tuu61186-1307533c21e64fea8x/Gau-1307667.inp -scrdir=/tmp/g09-tuu61186-1307533c21e64fea8x/
 Entering Link 1 = /data/opt/apps/g09-C01/l1.exe PID=   1307676.
  
 Copyright (c) 1988,1990,1992,1993,1995,1998,2003,2009,2011,
            Gaussian, Inc.  All Rights Reserved.
  
 This is part of the Gaussian(R) 09 program.  It is based on
 the Gaussian(R) 03 system (copyright 2003, Gaussian, Inc.),
 the Gaussian(R) 98 system (copyright 1998, Gaussian, Inc.),
 the Gaussian(R) 94 system (copyright 1995, Gaussian, Inc.),
 the Gaussian 92(TM) system (copyright 1992, Gaussian, Inc.),
 the Gaussian 90(TM) system (copyright 1990, Gaussian, Inc.),
 the Gaussian 88(TM) system (copyright 1988, Gaussian, Inc.),
 the Gaussian 86(TM) system (copyright 1986, Carnegie Mellon
 University), and the Gaussian 82(TM) system (copyright 1983,
 Carnegie Mellon University). Gaussian is a federally registered
 trademark of Gaussian, Inc.
  
 This software contains proprietary and confidential information,
 including trade secrets, belonging to Gaussian, Inc.
  
 This software is provided under written license and may be
 used, copied, transmitted, or stored only in accord with that
 written license.
  
 The following legend is applicable only to US Government
 contracts under FAR:
  
                    RESTRICTED RIGHTS LEGEND
  
 Use, reproduction and disclosure by the US Government is
 subject to restrictions as set forth in subparagraphs (a)
 and (c) of the Commercial Computer Software - Restricted
 Rights clause in FAR 52.227-19.
  
 Gaussian, Inc.
 340 Quinnipiac St., Bldg. 40, Wallingford CT 06492
  
  
 ---------------------------------------------------------------
 Warning -- This program may not be used in any manner that
 competes with the business of Gaussian, Inc. or will provide
 assistance to any competitor of Gaussian, Inc.  The licensee
 of this program is prohibited from giving any competitor of
 Gaussian, Inc. access to this program.  By using this program,
 the user acknowledges that Gaussian, Inc. is engaged in the
 business of creating and licensing software in the field of
 computational chemistry and represents and warrants to the
 licensee that it is not a competitor of Gaussian, Inc. and that
 it will not use this program in any manner prohibited above.
 ---------------------------------------------------------------
  

 Cite this work as:
 Gaussian 09, Revision C.01,
 M. J. Frisch, G. W. Trucks, H. B. Schlegel, G. E. Scuseria, 
 M. A. Robb, J. R. Cheeseman, G. Scalmani, V. Barone, B. Mennucci, 
 G. A. Petersson, H. Nakatsuji, M. Caricato, X. Li, H. P. Hratchian, 
 A. F. Izmaylov, J. Bloino, G. Zheng, J. L. Sonnenberg, M. Hada, 
 M. Ehara, K. Toyota, R. Fukuda, J. Hasegawa, M. Ishida, T. Nakajima, 
 Y. Honda, O. Kitao, H. Nakai, T. Vreven, J. A. Montgomery, Jr., 
 J. E. Peralta, F. Ogliaro, M. Bearpark, J. J. Heyd, E. Brothers, 
 K. N. Kudin, V. N. Staroverov, T. Keith, R. Kobayashi, J. Normand, 
 K. Raghavachari, A. Rendell, J. C. Burant, S. S. Iyengar, J. Tomasi, 
 M. Cossi, N. Rega, J. M. Millam, M. Klene, J. E. Knox, J. B. Cross, 
 V. Bakken, C. Adamo, J. Jaramillo, R. Gomperts, R. E. Stratmann, 
 O. Yazyev, A. J. Austin, R. Cammi, C. Pomelli, J. W. Ochterski, 
 R. L. Martin, K. Morokuma, V. G. Zakrzewski, G. A. Voth, 
 P. Salvador, J. J. Dannenberg, S. Dapprich, A. D. Daniels, 
 O. Farkas, J. B. Foresman, J. V. Ortiz, J. Cioslowski, 
 and D. J. Fox, Gaussian, Inc., Wallingford CT, 2010.
 
 ******************************************
 Gaussian 09:  EM64L-G09RevC.01 23-Sep-2011
                24-Apr-2026 
 ******************************************
 %nprocshared=8
 Will use up to    8 processors via shared memory.
 %mem=14GB
 -----------------------------------
 # opt=modredundant b3lyp/6-31g(d,p)
 -----------------------------------
 1/14=-1,18=120,19=15,26=3,38=1/1,3;
 2/9=110,12=2,17=6,18=5,40=1/2;
 3/5=1,6=6,7=101,11=2,16=1,25=1,30=1,71=1,74=-5/1,2,3;
 4//1;
 5/5=2,38=5/2;
 6/7=2,8=2,9=2,10=2,28=1/1;
 7//1,2,3,16;
 1/14=-1,18=20,19=15/3(2);
 2/9=110/2;
 99//99;
 2/9=110/2;
 3/5=1,6=6,7=101,11=2,16=1,25=1,30=1,71=1,74=-5/1,2,3;
 4/5=5,16=3/1;
 5/5=2,38=5/2;
 7//1,2,3,16;
 1/14=-1,18=20,19=15/3(-5);
 2/9=110/2;
 6/7=2,8=2,9=2,10=2,19=2,28=1/1;
 99/9=1/99;
 ---------------
 QM dihedral opt
 ---------------
 Charge =  0 Multiplicity = 1
 Symbolic Z-Matrix:
 C                     0.74808   2.68827  -0.82032 
 C                    -0.21956   1.663    -0.24141 
 O                    -1.42649   1.77589  -0.42551 
 N                     0.31408   0.61431   0.47478 
 C                    -0.54971  -0.33992   1.19103 
 C                    -2.04148  -0.45102   0.81526 
 O                    -2.87359  -0.16543   1.66706 
 N                    -2.37768  -1.05497  -0.37263 
 C                    -1.46171  -1.20885  -1.4881 
 C                    -3.79134  -1.09791  -0.72374 
 H                     0.17477   3.31819  -1.49952 
 H                     1.58153   2.23407  -1.36351 
 H                     1.16675   3.3217   -0.03071 
 H                    -0.09379  -1.33397   1.10208 
 H                    -0.56755  -0.07874   2.25386 
 H                    -0.43305  -1.30173  -1.14087 
 H                    -1.71489  -2.11906  -2.04252 
 H                    -1.51687  -0.35395  -2.17548 
 H                    -4.00605  -2.02346  -1.26824 
 H                    -4.3784   -1.06035   0.19176 
 H                    -4.06756  -0.24332  -1.35649 
 C                     1.73503   0.5029    0.80314 
 H                     2.22067   1.47763   0.74561 
 H                     1.83422   0.16778   1.8414 
 C                     2.48253  -0.4785   -0.10314 
 H                     2.43977  -0.1356   -1.15109 
 H                     2.00631  -1.47364  -0.06874 
 O                     3.81441  -0.54171   0.35769 
 C                     4.62108  -1.42517  -0.39574 
 H                     5.62258  -1.39873   0.03892 
 H                     4.24197  -2.45799  -0.35519 
 H                     4.6826   -1.12097  -1.45205 
 
 The following ModRedundant input section has been read:
 D       2       4       5       6 F                                           
 D       4       5       6       8 S  36 10.000                                

 GradGradGradGradGradGradGradGradGradGradGradGradGradGradGradGradGradGrad
 Berny optimization.
 Initialization pass.
                           ----------------------------
                           !    Initial Parameters    !
                           ! (Angstroms and Degrees)  !
 --------------------------                            --------------------------
 ! Name  Definition              Value          Derivative Info.                !
 --------------------------------------------------------------------------------
 ! R1    R(1,2)                  1.524          estimate D2E/DX2                !
 ! R2    R(1,11)                 1.0894         estimate D2E/DX2                !
 ! R3    R(1,12)                 1.0936         estimate D2E/DX2                !
 ! R4    R(1,13)                 1.0955         estimate D2E/DX2                !
 ! R5    R(2,3)                  1.2261         estimate D2E/DX2                !
 ! R6    R(2,4)                  1.3775         estimate D2E/DX2                !
 ! R7    R(4,5)                  1.473          estimate D2E/DX2                !
 ! R8    R(4,22)                 1.4626         estimate D2E/DX2                !
 ! R9    R(5,6)                  1.5424         estimate D2E/DX2                !
 ! R10   R(5,14)                 1.0972         estimate D2E/DX2                !
 ! R11   R(5,15)                 1.0946         estimate D2E/DX2                !
 ! R12   R(6,7)                  1.2246         estimate D2E/DX2                !
 ! R13   R(6,8)                  1.3744         estimate D2E/DX2                !
 ! R14   R(8,9)                  1.4515         estimate D2E/DX2                !
 ! R15   R(8,10)                 1.4572         estimate D2E/DX2                !
 ! R16   R(9,16)                 1.0897         estimate D2E/DX2                !
 ! R17   R(9,17)                 1.0954         estimate D2E/DX2                !
 ! R18   R(9,18)                 1.0984         estimate D2E/DX2                !
 ! R19   R(10,19)                1.0951         estimate D2E/DX2                !
 ! R20   R(10,20)                1.0882         estimate D2E/DX2                !
 ! R21   R(10,21)                1.0986         estimate D2E/DX2                !
 ! R22   R(22,23)                1.0905         estimate D2E/DX2                !
 ! R23   R(22,24)                1.0955         estimate D2E/DX2                !
 ! R24   R(22,25)                1.5308         estimate D2E/DX2                !
 ! R25   R(25,26)                1.1034         estimate D2E/DX2                !
 ! R26   R(25,27)                1.1038         estimate D2E/DX2                !
 ! R27   R(25,28)                1.4108         estimate D2E/DX2                !
 ! R28   R(28,29)                1.4138         estimate D2E/DX2                !
 ! R29   R(29,30)                1.0921         estimate D2E/DX2                !
 ! R30   R(29,31)                1.101          estimate D2E/DX2                !
 ! R31   R(29,32)                1.101          estimate D2E/DX2                !
 ! A1    A(2,1,11)             106.9584         estimate D2E/DX2                !
 ! A2    A(2,1,12)             113.1511         estimate D2E/DX2                !
 ! A3    A(2,1,13)             110.9687         estimate D2E/DX2                !
 ! A4    A(11,1,12)            109.3634         estimate D2E/DX2                !
 ! A5    A(11,1,13)            108.4314         estimate D2E/DX2                !
 ! A6    A(12,1,13)            107.8728         estimate D2E/DX2                !
 ! A7    A(1,2,3)              120.3996         estimate D2E/DX2                !
 ! A8    A(1,2,4)              117.6251         estimate D2E/DX2                !
 ! A9    A(3,2,4)              121.9723         estimate D2E/DX2                !
 ! A10   A(2,4,5)              121.2535         estimate D2E/DX2                !
 ! A11   A(2,4,22)             123.4404         estimate D2E/DX2                !
 ! A12   A(5,4,22)             114.2802         estimate D2E/DX2                !
 ! A13   A(4,5,6)              119.6943         estimate D2E/DX2                !
 ! A14   A(4,5,14)             107.6867         estimate D2E/DX2                !
 ! A15   A(4,5,15)             109.0941         estimate D2E/DX2                !
 ! A16   A(6,5,14)             108.4743         estimate D2E/DX2                !
 ! A17   A(6,5,15)             103.7678         estimate D2E/DX2                !
 ! A18   A(14,5,15)            107.5577         estimate D2E/DX2                !
 ! A19   A(5,6,7)              118.0964         estimate D2E/DX2                !
 ! A20   A(5,6,8)              118.609          estimate D2E/DX2                !
 ! A21   A(7,6,8)              122.512          estimate D2E/DX2                !
 ! A22   A(6,8,9)              123.8089         estimate D2E/DX2                !
 ! A23   A(6,8,10)             117.2908         estimate D2E/DX2                !
 ! A24   A(9,8,10)             115.08           estimate D2E/DX2                !
 ! A25   A(8,9,16)             111.0921         estimate D2E/DX2                !
 ! A26   A(8,9,17)             109.3405         estimate D2E/DX2                !
 ! A27   A(8,9,18)             111.5138         estimate D2E/DX2                !
 ! A28   A(16,9,17)            107.9777         estimate D2E/DX2                !
 ! A29   A(16,9,18)            108.2502         estimate D2E/DX2                !
 ! A30   A(17,9,18)            108.5663         estimate D2E/DX2                !
 ! A31   A(8,10,19)            109.5669         estimate D2E/DX2                !
 ! A32   A(8,10,20)            108.6404         estimate D2E/DX2                !
 ! A33   A(8,10,21)            111.0855         estimate D2E/DX2                !
 ! A34   A(19,10,20)           109.9805         estimate D2E/DX2                !
 ! A35   A(19,10,21)           108.7696         estimate D2E/DX2                !
 ! A36   A(20,10,21)           108.787          estimate D2E/DX2                !
 ! A37   A(4,22,23)            110.6527         estimate D2E/DX2                !
 ! A38   A(4,22,24)            108.9064         estimate D2E/DX2                !
 ! A39   A(4,22,25)            112.9744         estimate D2E/DX2                !
 ! A40   A(23,22,24)           106.4447         estimate D2E/DX2                !
 ! A41   A(23,22,25)           108.9263         estimate D2E/DX2                !
 ! A42   A(24,22,25)           108.7102         estimate D2E/DX2                !
 ! A43   A(22,25,26)           110.1278         estimate D2E/DX2                !
 ! A44   A(22,25,27)           110.4193         estimate D2E/DX2                !
 ! A45   A(22,25,28)           107.2379         estimate D2E/DX2                !
 ! A46   A(26,25,27)           107.0411         estimate D2E/DX2                !
 ! A47   A(26,25,28)           111.145          estimate D2E/DX2                !
 ! A48   A(27,25,28)           110.9008         estimate D2E/DX2                !
 ! A49   A(25,28,29)           113.115          estimate D2E/DX2                !
 ! A50   A(28,29,30)           107.2185         estimate D2E/DX2                !
 ! A51   A(28,29,31)           111.7226         estimate D2E/DX2                !
 ! A52   A(28,29,32)           111.7479         estimate D2E/DX2                !
 ! A53   A(30,29,31)           108.8954         estimate D2E/DX2                !
 ! A54   A(30,29,32)           108.9008         estimate D2E/DX2                !
 ! A55   A(31,29,32)           108.287          estimate D2E/DX2                !
 ! D1    D(11,1,2,3)            -9.9966         estimate D2E/DX2                !
 ! D2    D(11,1,2,4)           169.393          estimate D2E/DX2                !
 ! D3    D(12,1,2,3)          -130.486          estimate D2E/DX2                !
 ! D4    D(12,1,2,4)            48.9036         estimate D2E/DX2                !
 ! D5    D(13,1,2,3)           108.0928         estimate D2E/DX2                !
 ! D6    D(13,1,2,4)           -72.5176         estimate D2E/DX2                !
 ! D7    D(1,2,4,5)            173.3197         estimate D2E/DX2                !
 ! D8    D(1,2,4,22)             5.5743         estimate D2E/DX2                !
 ! D9    D(3,2,4,5)             -7.3009         estimate D2E/DX2                !
 ! D10   D(3,2,4,22)          -175.0463         estimate D2E/DX2                !
 ! D11   D(2,4,5,6)             18.6699         Frozen                          !
 ! D12   D(2,4,5,14)           143.0531         estimate D2E/DX2                !
 ! D13   D(2,4,5,15)          -100.4945         estimate D2E/DX2                !
 ! D14   D(22,4,5,6)          -172.5344         estimate D2E/DX2                !
 ! D15   D(22,4,5,14)          -48.1511         estimate D2E/DX2                !
 ! D16   D(22,4,5,15)           68.3012         estimate D2E/DX2                !
 ! D17   D(2,4,22,23)           20.8411         estimate D2E/DX2                !
 ! D18   D(2,4,22,24)          137.5131         estimate D2E/DX2                !
 ! D19   D(2,4,22,25)         -101.5903         estimate D2E/DX2                !
 ! D20   D(5,4,22,23)         -147.6768         estimate D2E/DX2                !
 ! D21   D(5,4,22,24)          -31.0048         estimate D2E/DX2                !
 ! D22   D(5,4,22,25)           89.8918         estimate D2E/DX2                !
 ! D23   D(4,5,6,7)           -117.3736         estimate D2E/DX2                !
 ! D24   D(4,5,6,8)             72.4986         Scan                            !
 ! D25   D(14,5,6,7)           118.6216         estimate D2E/DX2                !
 ! D26   D(14,5,6,8)           -51.5062         estimate D2E/DX2                !
 ! D27   D(15,5,6,7)             4.459          estimate D2E/DX2                !
 ! D28   D(15,5,6,8)          -165.6688         estimate D2E/DX2                !
 ! D29   D(5,6,8,9)            -20.8019         estimate D2E/DX2                !
 ! D30   D(5,6,8,10)          -177.6626         estimate D2E/DX2                !
 ! D31   D(7,6,8,9)            169.5303         estimate D2E/DX2                !
 ! D32   D(7,6,8,10)            12.6696         estimate D2E/DX2                !
 ! D33   D(6,8,9,16)            30.3271         estimate D2E/DX2                !
 ! D34   D(6,8,9,17)           149.4034         estimate D2E/DX2                !
 ! D35   D(6,8,9,18)           -90.5257         estimate D2E/DX2                !
 ! D36   D(10,8,9,16)         -172.3527         estimate D2E/DX2                !
 ! D37   D(10,8,9,17)          -53.2764         estimate D2E/DX2                !
 ! D38   D(10,8,9,18)           66.7945         estimate D2E/DX2                !
 ! D39   D(6,8,10,19)         -146.1671         estimate D2E/DX2                !
 ! D40   D(6,8,10,20)          -25.9939         estimate D2E/DX2                !
 ! D41   D(6,8,10,21)           93.632          estimate D2E/DX2                !
 ! D42   D(9,8,10,19)           54.9642         estimate D2E/DX2                !
 ! D43   D(9,8,10,20)          175.1374         estimate D2E/DX2                !
 ! D44   D(9,8,10,21)          -65.2368         estimate D2E/DX2                !
 ! D45   D(4,22,25,26)          61.7749         estimate D2E/DX2                !
 ! D46   D(4,22,25,27)         -56.2261         estimate D2E/DX2                !
 ! D47   D(4,22,25,28)        -177.1623         estimate D2E/DX2                !
 ! D48   D(23,22,25,26)        -61.6163         estimate D2E/DX2                !
 ! D49   D(23,22,25,27)       -179.6173         estimate D2E/DX2                !
 ! D50   D(23,22,25,28)         59.4465         estimate D2E/DX2                !
 ! D51   D(24,22,25,26)       -177.2171         estimate D2E/DX2                !
 ! D52   D(24,22,25,27)         64.7819         estimate D2E/DX2                !
 ! D53   D(24,22,25,28)        -56.1543         estimate D2E/DX2                !
 ! D54   D(22,25,28,29)        179.7765         estimate D2E/DX2                !
 ! D55   D(26,25,28,29)        -59.8049         estimate D2E/DX2                !
 ! D56   D(27,25,28,29)         59.145          estimate D2E/DX2                !
 ! D57   D(25,28,29,30)        179.9249         estimate D2E/DX2                !
 ! D58   D(25,28,29,31)        -60.8383         estimate D2E/DX2                !
 ! D59   D(25,28,29,32)         60.6669         estimate D2E/DX2                !
 --------------------------------------------------------------------------------
 Trust Radius=3.00D-01 FncErr=1.00D-07 GrdErr=1.00D-06
 Number of optimizations in scan=  37
 Number of steps in this run=    155 maximum allowed number of steps=    192.
 GradGradGradGradGradGradGradGradGradGradGradGradGradGradGradGradGradGrad

                          Input orientation:                          
 ---------------------------------------------------------------------
 Center     Atomic      Atomic             Coordinates (Angstroms)
 Number     Number       Type             X           Y           Z
 ---------------------------------------------------------------------
      1          6           0        0.748084    2.688266   -0.820322
      2          6           0       -0.219564    1.663003   -0.241407
      3          8           0       -1.426486    1.775888   -0.425510
      4          7           0        0.314080    0.614305    0.474782
      5          6           0       -0.549710   -0.339923    1.191029
      6          6           0       -2.041476   -0.451016    0.815255
      7          8           0       -2.873591   -0.165427    1.667060
      8          7           0       -2.377684   -1.054975   -0.372634
      9          6           0       -1.461714   -1.208854   -1.488104
     10          6           0       -3.791335   -1.097906   -0.723739
     11          1           0        0.174769    3.318190   -1.499515
     12          1           0        1.581533    2.234069   -1.363505
     13          1           0        1.166752    3.321702   -0.030708
     14          1           0       -0.093793   -1.333972    1.102077
     15          1           0       -0.567549   -0.078735    2.253859
     16          1           0       -0.433051   -1.301725   -1.140874
     17          1           0       -1.714890   -2.119063   -2.042519
     18          1           0       -1.516868   -0.353945   -2.175478
     19          1           0       -4.006052   -2.023460   -1.268244
     20          1           0       -4.378400   -1.060348    0.191759
     21          1           0       -4.067562   -0.243321   -1.356493
     22          6           0        1.735032    0.502896    0.803135
     23          1           0        2.220669    1.477632    0.745608
     24          1           0        1.834220    0.167784    1.841403
     25          6           0        2.482527   -0.478501   -0.103143
     26          1           0        2.439769   -0.135604   -1.151085
     27          1           0        2.006308   -1.473643   -0.068737
     28          8           0        3.814413   -0.541708    0.357692
     29          6           0        4.621079   -1.425165   -0.395735
     30          1           0        5.622579   -1.398730    0.038916
     31          1           0        4.241968   -2.457990   -0.355193
     32          1           0        4.682602   -1.120967   -1.452051
 ---------------------------------------------------------------------
                    Distance matrix (angstroms):
                    1          2          3          4          5
     1  C    0.000000
     2  C    1.524024   0.000000
     3  O    2.391038   1.226090   0.000000
     4  N    2.483338   1.377487   2.278019   0.000000
     5  C    3.860017   2.484468   2.803318   1.472988   0.000000
     6  C    4.506867   2.984120   2.622368   2.607580   1.542373
     7  O    5.239004   3.745566   3.200260   3.491526   2.378545
     8  N    4.897214   3.473054   2.986864   3.278750   2.509548
     9  C    4.529535   3.368197   3.168443   3.214074   2.960498
    10  C    5.911916   4.540133   3.733650   4.606794   3.840444
    11  H    1.089402   2.116123   2.469048   3.350858   4.598444
    12  H    1.093609   2.197537   3.184014   2.758509   4.206338
    13  H    1.095452   2.171992   3.044716   2.883152   4.224498
    14  H    4.536824   3.286735   3.712253   2.087018   1.097227
    15  H    4.340250   3.062858   3.369928   2.103019   1.094598
    16  H    4.173471   3.105516   3.312153   2.615286   2.525162
    17  H    5.538088   4.447924   4.227119   4.233772   3.870248
    18  H    4.027593   3.080861   2.758033   3.363593   3.502708
    19  H    6.708413   5.383484   4.668983   5.353455   4.563838
    20  H    6.430961   4.990009   4.139934   4.990384   4.021992
    21  H    5.663226   4.436730   3.452422   4.825751   4.344477
    22  C    2.895776   2.501472   3.622882   1.462646   2.465938
    23  H    2.467038   2.638806   3.842163   2.110394   3.343188
    24  H    3.823258   3.285088   4.284518   2.092334   2.522672
    25  C    3.681175   3.450573   4.524000   2.496074   3.299780
    26  H    3.308390   3.336848   4.373578   2.779273   3.803187
    27  H    4.412425   3.850048   4.740339   2.742002   3.066848
    28  O    4.606823   4.636016   5.783743   3.688144   4.447554
    29  C    5.665746   5.743903   6.842563   4.844324   5.516578
    30  H    6.418920   6.601774   7.744883   5.694072   6.367542
    31  H    6.237589   6.074603   7.075453   5.055310   5.462343
    32  H    5.512692   5.766054   6.838605   5.080142   5.913797
                    6          7          8          9         10
     6  C    0.000000
     7  O    1.224560   0.000000
     8  N    1.374366   2.279818   0.000000
     9  C    2.493172   3.610706   1.451535   0.000000
    10  C    2.418466   2.725379   1.457233   2.454322   0.000000
    11  H    4.947405   5.608501   5.187432   4.813765   5.986127
    12  H    5.008280   5.898308   5.241663   4.596803   6.354453
    13  H    5.024120   5.600612   5.642273   5.436798   6.678013
    14  H    2.157625   3.067895   2.732905   2.931877   4.130514
    15  H    2.092997   2.381109   3.335881   4.009861   4.505285
    16  H    2.671550   3.889975   2.105392   1.089652   3.390223
    17  H    3.325043   4.349742   2.088084   1.095424   2.663375
    18  H    3.037947   4.079379   2.117237   1.098360   2.798968
    19  H    3.266972   3.653870   2.095629   2.680593   1.095098
    20  H    2.494243   2.289508   2.078806   3.369132   1.088206
    21  H    2.977356   3.251693   2.117179   2.782089   1.098633
    22  C    3.895139   4.736288   4.552343   4.289411   5.952701
    23  H    4.678719   5.431409   5.367440   5.076083   6.703474
    24  H    4.056712   4.722807   4.912966   4.883025   6.311006
    25  C    4.616364   5.649746   4.901693   4.243650   6.334836
    26  H    4.903829   6.014534   4.965791   4.060421   6.319439
    27  H    4.267524   5.342081   4.414411   3.756580   5.846612
    28  O    5.874438   6.825352   6.256108   5.629348   7.702354
    29  C    6.841425   7.874779   7.008585   6.183885   8.425164
    30  H    7.761353   8.738237   8.018214   7.249486   9.449546
    31  H    6.699221   7.744452   6.766724   5.947757   8.155956
    32  H    7.127604   8.230308   7.142628   6.145050   8.505209
                   11         12         13         14         15
    11  H    0.000000
    12  H    1.781236   0.000000
    13  H    1.772410   1.769558   0.000000
    14  H    5.336948   4.649379   4.954541   0.000000
    15  H    5.116439   4.801348   4.448597   1.768238   0.000000
    16  H    4.673509   4.075531   5.016763   2.268692   3.610818
    17  H    5.781815   5.502474   6.477127   3.623922   4.892667
    18  H    4.099163   4.117913   5.031127   3.705126   4.538279
    19  H    6.787192   7.025435   7.540567   4.625969   5.292492
    20  H    6.539369   6.985187   7.071108   4.388782   4.442793
    21  H    5.540956   6.168451   6.470327   4.798430   5.031085
    22  C    3.957587   2.777562   2.993978   2.609224   2.782943
    23  H    3.551611   2.330032   2.261416   3.659088   3.531467
    24  H    4.882680   3.821625   3.727937   2.553254   2.449364
    25  C    4.657302   3.123834   4.022195   2.970153   3.875337
    26  H    4.144915   2.529237   3.850816   3.596076   4.543219
    27  H    5.325723   3.950188   4.868432   2.408472   3.736972
    28  O    5.620946   3.956414   4.699670   4.056583   4.797018
    29  C    6.594499   4.854422   5.882038   4.947906   5.979555
    30  H    7.368496   5.611957   6.491665   5.814758   6.705673
    31  H    7.156524   5.487260   6.554928   4.710189   5.966528
    32  H    6.326842   4.569544   5.841124   5.420599   6.510307
                   16         17         18         19         20
    16  H    0.000000
    17  H    1.767517   0.000000
    18  H    1.772950   1.781160   0.000000
    19  H    3.647391   2.420344   3.131516   0.000000
    20  H    4.171325   3.634166   3.780368   1.788250   0.000000
    21  H    3.791620   3.086115   2.681234   1.783386   1.777987
    22  C    3.425845   5.184050   4.492345   6.605538   6.339682
    23  H    4.280873   6.016518   5.084939   7.421947   7.091953
    24  H    4.024171   5.736785   5.257121   6.969952   6.544179
    25  C    3.202371   4.906214   4.506134   6.770969   6.891867
    26  H    3.100490   4.689345   4.092924   6.717614   7.010407
    27  H    2.670113   4.261420   4.254979   6.155452   6.403372
    28  O    4.567743   6.230751   5.905486   8.123973   8.210889
    29  C    5.110254   6.583152   6.479922   8.691756   9.026010
    30  H    6.170249   7.660920   7.547637   9.737016  10.007869
    31  H    4.879554   6.200492   6.395673   8.309772   8.750046
    32  H    5.128295   6.501750   6.288489   8.737333   9.209101
                   21         22         23         24         25
    21  H    0.000000
    22  C    6.236259   0.000000
    23  H    6.849990   1.090533   0.000000
    24  H    6.725071   1.095508   1.750946   0.000000
    25  C    6.673070   1.530761   2.148349   2.149243   0.000000
    26  H    6.511463   2.173318   2.499596   3.068178   1.103444
    27  H    6.329605   2.177259   3.069061   2.524387   1.103755
    28  O    8.071741   2.369270   2.601583   2.574090   1.410774
    29  C    8.821128   3.672053   3.935843   3.912653   2.356945
    30  H    9.858041   4.394682   4.510639   4.478235   3.275199
    31  H    8.657693   4.048864   4.559225   4.185328   2.660364
    32  H    8.794587   4.051045   4.200421   4.541035   2.659445
                   26         27         28         29         30
    26  H    0.000000
    27  H    1.774743   0.000000
    28  O    2.081099   2.078362   0.000000
    29  C    2.644170   2.635584   1.413810   0.000000
    30  H    3.625172   3.618649   2.026220   1.092073   0.000000
    31  H    3.045463   2.459506   2.088814   1.100952   1.784220
    32  H    2.468161   3.033231   2.089130   1.100965   1.784290
                   31         32
    31  H    0.000000
    32  H    1.784625   0.000000
 Stoichiometry    C9H18N2O3
 Framework group  C1[X(C9H18N2O3)]
 Deg. of freedom    90
 Full point group                 C1      NOp   1
 Largest Abelian subgroup         C1      NOp   1
 Largest concise Abelian subgroup C1      NOp   1
                         Standard orientation:                         
 ---------------------------------------------------------------------
 Center     Atomic      Atomic             Coordinates (Angstroms)
 Number     Number       Type             X           Y           Z
 ---------------------------------------------------------------------
      1          6           0        0.748084    2.688266   -0.820322
      2          6           0       -0.219564    1.663003   -0.241407
      3          8           0       -1.426486    1.775888   -0.425510
      4          7           0        0.314080    0.614305    0.474782
      5          6           0       -0.549710   -0.339923    1.191029
      6          6           0       -2.041476   -0.451016    0.815255
      7          8           0       -2.873591   -0.165427    1.667060
      8          7           0       -2.377684   -1.054975   -0.372634
      9          6           0       -1.461714   -1.208854   -1.488104
     10          6           0       -3.791335   -1.097906   -0.723739
     11          1           0        0.174769    3.318190   -1.499515
     12          1           0        1.581533    2.234069   -1.363505
     13          1           0        1.166752    3.321702   -0.030708
     14          1           0       -0.093793   -1.333972    1.102077
     15          1           0       -0.567549   -0.078735    2.253859
     16          1           0       -0.433051   -1.301725   -1.140874
     17          1           0       -1.714890   -2.119063   -2.042519
     18          1           0       -1.516868   -0.353945   -2.175478
     19          1           0       -4.006052   -2.023460   -1.268244
     20          1           0       -4.378400   -1.060348    0.191759
     21          1           0       -4.067562   -0.243321   -1.356493
     22          6           0        1.735032    0.502896    0.803135
     23          1           0        2.220669    1.477632    0.745608
     24          1           0        1.834220    0.167784    1.841403
     25          6           0        2.482527   -0.478501   -0.103143
     26          1           0        2.439769   -0.135604   -1.151085
     27          1           0        2.006308   -1.473643   -0.068737
     28          8           0        3.814413   -0.541708    0.357692
     29          6           0        4.621079   -1.425165   -0.395735
     30          1           0        5.622579   -1.398730    0.038916
     31          1           0        4.241968   -2.457990   -0.355193
     32          1           0        4.682602   -1.120967   -1.452051
 ---------------------------------------------------------------------
 Rotational constants (GHZ):      1.0548316      0.3564933      0.3214589
 Standard basis: 6-31G(d,p) (6D, 7F)
 There are   300 symmetry adapted basis functions of A   symmetry.
 Integral buffers will be    131072 words long.
 Raffenetti 2 integral format.
 Two-electron integral symmetry is turned on.
   300 basis functions,   518 primitive gaussians,   300 cartesian basis functions
    55 alpha electrons       55 beta electrons
       nuclear repulsion energy       978.1130508934 Hartrees.
 NAtoms=   32 NActive=   32 NUniq=   32 SFac= 1.00D+00 NAtFMM=   60 NAOKFM=F Big=F
 One-electron integrals computed using PRISM.
 NBasis=   300 RedAO= T  NBF=   300
 NBsUse=   300 1.00D-06 NBFU=   300
 Harris functional with IExCor=  402 diagonalized for initial guess.
 ExpMin= 1.61D-01 ExpMax= 5.48D+03 ExpMxC= 8.25D+02 IAcc=1 IRadAn=         1 AccDes= 0.00D+00
 HarFok:  IExCor=  402 AccDes= 0.00D+00 IRadAn=         1 IDoV= 1
 ScaDFX=  1.000000  1.000000  1.000000  1.000000
 FoFCou: FMM=F IPFlag=           0 FMFlag=      100000 FMFlg1=           0
         NFxFlg=           0 DoJE=T BraDBF=F KetDBF=T FulRan=T
         Omega=  0.000000  0.000000  1.000000  0.000000  0.000000 ICntrl=     500 IOpCl=  0
         NMat0=    1 NMatS0=    1 NMatT0=    0 NMatD0=    1 NMtDS0=    0 NMtDT0=    0
         I1Cent=           4 NGrid=           0.
 Petite list used in FoFCou.
 Initial guess orbital symmetries:
       Occupied  (A) (A) (A) (A) (A) (A) (A) (A) (A) (A) (A) (A)
                 (A) (A) (A) (A) (A) (A) (A) (A) (A) (A) (A) (A)
                 (A) (A) (A) (A) (A) (A) (A) (A) (A) (A) (A) (A)
                 (A) (A) (A) (A) (A) (A) (A) (A) (A) (A) (A) (A)
                 (A) (A) (A) (A) (A) (A) (A)
       Virtual   (A) (A) (A) (A) (A) (A) (A) (A) (A) (A) (A) (A)
                 (A) (A) (A) (A) (A) (A) (A) (A) (A) (A) (A) (A)
                 (A) (A) (A) (A) (A) (A) (A) (A) (A) (A) (A) (A)
                 (A) (A) (A) (A) (A) (A) (A) (A) (A) (A) (A) (A)
                 (A) (A) (A) (A) (A) (A) (A) (A) (A) (A) (A) (A)
                 (A) (A) (A) (A) (A) (A) (A) (A) (A) (A) (A) (A)
                 (A) (A) (A) (A) (A) (A) (A) (A) (A) (A) (A) (A)
                 (A) (A) (A) (A) (A) (A) (A) (A) (A) (A) (A) (A)
                 (A) (A) (A) (A) (A) (A) (A) (A) (A) (A) (A) (A)
                 (A) (A) (A) (A) (A) (A) (A) (A) (A) (A) (A) (A)
                 (A) (A) (A) (A) (A) (A) (A) (A) (A) (A) (A) (A)
                 (A) (A) (A) (A) (A) (A) (A) (A) (A) (A) (A) (A)
                 (A) (A) (A) (A) (A) (A) (A) (A) (A) (A) (A) (A)
                 (A) (A) (A) (A) (A) (A) (A) (A) (A) (A) (A) (A)
                 (A) (A) (A) (A) (A) (A) (A) (A) (A) (A) (A) (A)
                 (A) (A) (A) (A) (A) (A) (A) (A) (A) (A) (A) (A)
                 (A) (A) (A) (A) (A) (A) (A) (A) (A) (A) (A) (A)
                 (A) (A) (A) (A) (A) (A) (A) (A) (A) (A) (A) (A)
                 (A) (A) (A) (A) (A) (A) (A) (A) (A) (A) (A) (A)
                 (A) (A) (A) (A) (A) (A) (A) (A) (A) (A) (A) (A)
                 (A) (A) (A) (A) (A)
 The electronic state of the initial guess is 1-A.
 Requested convergence on RMS density matrix=1.00D-08 within 128 cycles.
 Requested convergence on MAX density matrix=1.00D-06.
 Requested convergence on             energy=1.00D-06.
 No special actions if energy rises.
 Keep R1 ints in memory in canonical form, NReq=1033483893.
 Integral accuracy reduced to 1.0D-05 until final iterations.
 Initial convergence to 1.0D-05 achieved.  Increase integral accuracy.
 SCF Done:  E(RB3LYP) =  -688.987086322     A.U. after   14 cycles
             Convg  =    0.8031D-08             -V/T =  2.0093

 **********************************************************************

            Population analysis using the SCF density.

 **********************************************************************

 Orbital symmetries:
       Occupied  (A) (A) (A) (A) (A) (A) (A) (A) (A) (A) (A) (A)
                 (A) (A) (A) (A) (A) (A) (A) (A) (A) (A) (A) (A)
                 (A) (A) (A) (A) (A) (A) (A) (A) (A) (A) (A) (A)
                 (A) (A) (A) (A) (A) (A) (A) (A) (A) (A) (A) (A)
                 (A) (A) (A) (A) (A) (A) (A)
       Virtual   (A) (A) (A) (A) (A) (A) (A) (A) (A) (A) (A) (A)
                 (A) (A) (A) (A) (A) (A) (A) (A) (A) (A) (A) (A)
                 (A) (A) (A) (A) (A) (A) (A) (A) (A) (A) (A) (A)
                 (A) (A) (A) (A) (A) (A) (A) (A) (A) (A) (A) (A)
                 (A) (A) (A) (A) (A) (A) (A) (A) (A) (A) (A) (A)
                 (A) (A) (A) (A) (A) (A) (A) (A) (A) (A) (A) (A)
                 (A) (A) (A) (A) (A) (A) (A) (A) (A) (A) (A) (A)
                 (A) (A) (A) (A) (A) (A) (A) (A) (A) (A) (A) (A)
                 (A) (A) (A) (A) (A) (A) (A) (A) (A) (A) (A) (A)
                 (A) (A) (A) (A) (A) (A) (A) (A) (A) (A) (A) (A)
                 (A) (A) (A) (A) (A) (A) (A) (A) (A) (A) (A) (A)
                 (A) (A) (A) (A) (A) (A) (A) (A) (A) (A) (A) (A)
                 (A) (A) (A) (A) (A) (A) (A) (A) (A) (A) (A) (A)
                 (A) (A) (A) (A) (A) (A) (A) (A) (A) (A) (A) (A)
                 (A) (A) (A) (A) (A) (A) (A) (A) (A) (A) (A) (A)
                 (A) (A) (A) (A) (A) (A) (A) (A) (A) (A) (A) (A)
                 (A) (A) (A) (A) (A) (A) (A) (A) (A) (A) (A) (A)
                 (A) (A) (A) (A) (A) (A) (A) (A) (A) (A) (A) (A)
                 (A) (A) (A) (A) (A) (A) (A) (A) (A) (A) (A) (A)
                 (A) (A) (A) (A) (A) (A) (A) (A) (A) (A) (A) (A)
                 (A) (A) (A) (A) (A)
 The electronic state is 1-A.
 Alpha  occ. eigenvalues --  -19.16556 -19.11382 -19.09567 -14.37460 -14.35154
 Alpha  occ. eigenvalues --  -10.29190 -10.27722 -10.25060 -10.24138 -10.23666
 Alpha  occ. eigenvalues --  -10.23060 -10.21635 -10.19969 -10.19640  -1.04962
 Alpha  occ. eigenvalues --   -1.03680  -1.01671  -0.94053  -0.91977  -0.77795
 Alpha  occ. eigenvalues --   -0.76083  -0.72151  -0.70965  -0.68828  -0.67103
 Alpha  occ. eigenvalues --   -0.63464  -0.57041  -0.53363  -0.51537  -0.50704
 Alpha  occ. eigenvalues --   -0.48996  -0.48598  -0.47181  -0.46243  -0.46065
 Alpha  occ. eigenvalues --   -0.45427  -0.44390  -0.43136  -0.42453  -0.40313
 Alpha  occ. eigenvalues --   -0.39825  -0.39611  -0.39473  -0.39057  -0.38176
 Alpha  occ. eigenvalues --   -0.37210  -0.36679  -0.35642  -0.35102  -0.33568
 Alpha  occ. eigenvalues --   -0.27248  -0.25233  -0.24613  -0.23790  -0.22442
 Alpha virt. eigenvalues --    0.02065   0.02996   0.06481   0.07766   0.08917
 Alpha virt. eigenvalues --    0.10635   0.11765   0.12066   0.13343   0.14257
 Alpha virt. eigenvalues --    0.14672   0.15195   0.15520   0.15849   0.16339
 Alpha virt. eigenvalues --    0.16777   0.17341   0.17739   0.18753   0.19240
 Alpha virt. eigenvalues --    0.20236   0.20567   0.20955   0.21785   0.22877
 Alpha virt. eigenvalues --    0.24650   0.25010   0.26724   0.29469   0.33377
 Alpha virt. eigenvalues --    0.34838   0.37763   0.40302   0.47203   0.48217
 Alpha virt. eigenvalues --    0.49894   0.50585   0.51402   0.53038   0.53480
 Alpha virt. eigenvalues --    0.54883   0.55048   0.55185   0.55969   0.57298
 Alpha virt. eigenvalues --    0.58518   0.60085   0.62693   0.63979   0.64273
 Alpha virt. eigenvalues --    0.66376   0.68174   0.68640   0.69963   0.72074
 Alpha virt. eigenvalues --    0.73193   0.73898   0.74607   0.76074   0.77922
 Alpha virt. eigenvalues --    0.78564   0.78786   0.79633   0.81750   0.82934
 Alpha virt. eigenvalues --    0.83198   0.84366   0.85376   0.85747   0.86952
 Alpha virt. eigenvalues --    0.87646   0.88044   0.89236   0.89578   0.90371
 Alpha virt. eigenvalues --    0.91366   0.92155   0.93106   0.93661   0.94725
 Alpha virt. eigenvalues --    0.96166   0.96539   0.98272   0.99007   1.00464
 Alpha virt. eigenvalues --    1.03202   1.04982   1.05733   1.06344   1.09022
 Alpha virt. eigenvalues --    1.10900   1.15340   1.18051   1.19198   1.21922
 Alpha virt. eigenvalues --    1.24772   1.28369   1.30292   1.33279   1.33952
 Alpha virt. eigenvalues --    1.35897   1.36156   1.37408   1.38079   1.40863
 Alpha virt. eigenvalues --    1.42384   1.45060   1.48093   1.49995   1.53892
 Alpha virt. eigenvalues --    1.56861   1.58891   1.60008   1.64814   1.65769
 Alpha virt. eigenvalues --    1.68187   1.69658   1.70415   1.72507   1.73637
 Alpha virt. eigenvalues --    1.75633   1.78103   1.79346   1.80382   1.83471
 Alpha virt. eigenvalues --    1.83658   1.84850   1.86720   1.87360   1.88184
 Alpha virt. eigenvalues --    1.88840   1.89583   1.94047   1.94438   1.94788
 Alpha virt. eigenvalues --    1.95402   1.96408   1.97092   1.99141   1.99400
 Alpha virt. eigenvalues --    2.01325   2.01568   2.02026   2.02269   2.02979
 Alpha virt. eigenvalues --    2.04434   2.04572   2.04901   2.07257   2.07752
 Alpha virt. eigenvalues --    2.08577   2.08815   2.09420   2.10940   2.12251
 Alpha virt. eigenvalues --    2.13439   2.14013   2.16089   2.18295   2.19926
 Alpha virt. eigenvalues --    2.21123   2.22297   2.25444   2.27758   2.28909
 Alpha virt. eigenvalues --    2.30606   2.33234   2.36076   2.36968   2.39203
 Alpha virt. eigenvalues --    2.43917   2.44322   2.46381   2.49064   2.51058
 Alpha virt. eigenvalues --    2.51995   2.52710   2.54911   2.56225   2.57040
 Alpha virt. eigenvalues --    2.59379   2.60310   2.62120   2.62697   2.65485
 Alpha virt. eigenvalues --    2.66429   2.68008   2.68826   2.70060   2.71008
 Alpha virt. eigenvalues --    2.72060   2.73344   2.74569   2.76802   2.77800
 Alpha virt. eigenvalues --    2.79597   2.83082   2.83720   2.84908   2.85946
 Alpha virt. eigenvalues --    2.86706   2.88644   2.89308   2.90740   2.92875
 Alpha virt. eigenvalues --    2.95761   2.96899   3.01051   3.04543   3.08077
 Alpha virt. eigenvalues --    3.10823   3.13572   3.16228   3.17072   3.19688
 Alpha virt. eigenvalues --    3.22133   3.24560   3.25959   3.34196   3.35022
 Alpha virt. eigenvalues --    3.36889   3.40289   3.41437   3.42041   3.42813
 Alpha virt. eigenvalues --    3.44245   3.45603   3.45765   3.47099   3.51543
 Alpha virt. eigenvalues --    3.53880   3.96118   3.99879   4.05995   4.11816
 Alpha virt. eigenvalues --    4.22690   4.33602   4.34819   4.41991   4.45156
 Alpha virt. eigenvalues --    4.52026   4.54980   4.57765   4.69666   4.72234
          Condensed to atoms (all electrons):
              1          2          3          4          5          6
     1  C    5.163351   0.345520  -0.078314  -0.124631   0.005278   0.000249
     2  C    0.345520   4.370344   0.566208   0.261849  -0.033480   0.001561
     3  O   -0.078314   0.566208   8.084455  -0.091333  -0.006079   0.025047
     4  N   -0.124631   0.261849  -0.091333   7.136612   0.236787  -0.023674
     5  C    0.005278  -0.033480  -0.006079   0.236787   5.087188   0.321609
     6  C    0.000249   0.001561   0.025047  -0.023674   0.321609   4.347966
     7  O   -0.000016   0.000398  -0.004035   0.001199  -0.076027   0.574727
     8  N   -0.000059  -0.001522  -0.008739   0.004150  -0.111338   0.259107
     9  C    0.000023   0.001747   0.000380  -0.005255  -0.001475  -0.022993
    10  C   -0.000001  -0.000042  -0.000374  -0.000146   0.006089  -0.030690
    11  H    0.368504  -0.022996   0.005146   0.004533  -0.000116  -0.000006
    12  H    0.357825  -0.022254   0.001912   0.002698   0.000015  -0.000016
    13  H    0.363806  -0.019950   0.000810   0.001821  -0.000206  -0.000001
    14  H   -0.000178   0.003059   0.000462  -0.047201   0.353256  -0.025464
    15  H   -0.000111  -0.000245   0.000617  -0.039318   0.368687  -0.025417
    16  H   -0.000074  -0.000515  -0.001134   0.002778   0.006843  -0.008297
    17  H    0.000001   0.000036   0.000121   0.000170  -0.000468   0.002315
    18  H    0.000191   0.002200   0.005226  -0.001720   0.000205  -0.001136
    19  H    0.000000  -0.000002  -0.000005  -0.000001  -0.000174   0.003558
    20  H    0.000000  -0.000007  -0.000021  -0.000004   0.000854  -0.004451
    21  H    0.000004   0.000004   0.001049  -0.000007  -0.000079  -0.000696
    22  C    0.001582  -0.021501   0.002662   0.242818  -0.037070   0.002987
    23  H    0.007386  -0.008411   0.000117  -0.029481   0.003146  -0.000115
    24  H   -0.000288   0.002394  -0.000064  -0.036984  -0.000361   0.000131
    25  C   -0.001609  -0.000855  -0.000029  -0.052171  -0.003061  -0.000082
    26  H   -0.000772   0.001546  -0.000038   0.002941   0.000040   0.000016
    27  H    0.000102  -0.000157   0.000001   0.000952   0.000434  -0.000125
    28  O    0.000005   0.000014   0.000000   0.002058  -0.000002   0.000000
    29  C    0.000000  -0.000002   0.000000  -0.000126   0.000000   0.000000
    30  H    0.000000   0.000000   0.000000   0.000001   0.000000   0.000000
    31  H    0.000000   0.000000   0.000000   0.000011  -0.000002   0.000000
    32  H   -0.000001   0.000000   0.000000   0.000008   0.000000   0.000000
              7          8          9         10         11         12
     1  C   -0.000016  -0.000059   0.000023  -0.000001   0.368504   0.357825
     2  C    0.000398  -0.001522   0.001747  -0.000042  -0.022996  -0.022254
     3  O   -0.004035  -0.008739   0.000380  -0.000374   0.005146   0.001912
     4  N    0.001199   0.004150  -0.005255  -0.000146   0.004533   0.002698
     5  C   -0.076027  -0.111338  -0.001475   0.006089  -0.000116   0.000015
     6  C    0.574727   0.259107  -0.022993  -0.030690  -0.000006  -0.000016
     7  O    8.091336  -0.093659   0.002959  -0.010128   0.000000   0.000000
     8  N   -0.093659   7.016559   0.294548   0.301047   0.000003   0.000005
     9  C    0.002959   0.294548   4.811174  -0.052293  -0.000009  -0.000005
    10  C   -0.010128   0.301047  -0.052293   4.811583   0.000000   0.000000
    11  H    0.000000   0.000003  -0.000009   0.000000   0.541763  -0.023232
    12  H    0.000000   0.000005  -0.000005   0.000000  -0.023232   0.590421
    13  H    0.000000  -0.000001   0.000002   0.000000  -0.020929  -0.029782
    14  H    0.001966   0.003604  -0.001190  -0.000061   0.000004   0.000001
    15  H    0.007854   0.005097   0.000092  -0.000167   0.000000  -0.000005
    16  H    0.000054  -0.030411   0.381433   0.004581   0.000000   0.000037
    17  H   -0.000071  -0.041846   0.383006  -0.004675   0.000000  -0.000001
    18  H    0.000029  -0.046368   0.378107  -0.000533   0.000018  -0.000050
    19  H    0.000717  -0.042126  -0.002888   0.379139   0.000000   0.000000
    20  H    0.021886  -0.034912   0.004752   0.384189   0.000000   0.000000
    21  H    0.000821  -0.048110  -0.002054   0.388927   0.000000   0.000000
    22  C   -0.000055  -0.000161   0.000215   0.000003   0.000343  -0.001665
    23  H    0.000002   0.000004  -0.000016   0.000000   0.000008  -0.002343
    24  H   -0.000007  -0.000002  -0.000019   0.000000  -0.000012   0.000224
    25  C   -0.000001   0.000002  -0.000103   0.000000   0.000019  -0.000180
    26  H    0.000000  -0.000002  -0.000035   0.000000  -0.000040   0.003766
    27  H    0.000001   0.000014  -0.000450  -0.000001   0.000001  -0.000102
    28  O    0.000000   0.000000   0.000001   0.000000   0.000000  -0.000069
    29  C    0.000000   0.000000   0.000000   0.000000   0.000000  -0.000004
    30  H    0.000000   0.000000   0.000000   0.000000   0.000000   0.000000
    31  H    0.000000   0.000000  -0.000001   0.000000   0.000000   0.000000
    32  H    0.000000   0.000000   0.000000   0.000000   0.000000   0.000005
             13         14         15         16         17         18
     1  C    0.363806  -0.000178  -0.000111  -0.000074   0.000001   0.000191
     2  C   -0.019950   0.003059  -0.000245  -0.000515   0.000036   0.002200
     3  O    0.000810   0.000462   0.000617  -0.001134   0.000121   0.005226
     4  N    0.001821  -0.047201  -0.039318   0.002778   0.000170  -0.001720
     5  C   -0.000206   0.353256   0.368687   0.006843  -0.000468   0.000205
     6  C   -0.000001  -0.025464  -0.025417  -0.008297   0.002315  -0.001136
     7  O    0.000000   0.001966   0.007854   0.000054  -0.000071   0.000029
     8  N   -0.000001   0.003604   0.005097  -0.030411  -0.041846  -0.046368
     9  C    0.000002  -0.001190   0.000092   0.381433   0.383006   0.378107
    10  C    0.000000  -0.000061  -0.000167   0.004581  -0.004675  -0.000533
    11  H   -0.020929   0.000004   0.000000   0.000000   0.000000   0.000018
    12  H   -0.029782   0.000001  -0.000005   0.000037  -0.000001  -0.000050
    13  H    0.565552  -0.000007   0.000030   0.000000   0.000000   0.000003
    14  H   -0.000007   0.633860  -0.038124  -0.002400  -0.000043   0.000314
    15  H    0.000030  -0.038124   0.575033   0.000294   0.000006  -0.000040
    16  H    0.000000  -0.002400   0.000294   0.596982  -0.027068  -0.035406
    17  H    0.000000  -0.000043   0.000006  -0.027068   0.620219  -0.045154
    18  H    0.000003   0.000314  -0.000040  -0.035406  -0.045154   0.612297
    19  H    0.000000  -0.000007   0.000004   0.000130   0.006548  -0.001669
    20  H    0.000000  -0.000062  -0.000020  -0.000236   0.000115  -0.000224
    21  H    0.000000   0.000002   0.000001  -0.000147  -0.001800   0.006990
    22  C   -0.002910   0.001311  -0.006294  -0.001210   0.000007  -0.000037
    23  H    0.002092   0.000077   0.000370   0.000026   0.000000  -0.000001
    24  H    0.000180  -0.003752   0.005681   0.000073   0.000000  -0.000002
    25  C    0.000083   0.000866  -0.000431   0.000719  -0.000013   0.000028
    26  H    0.000057  -0.000253  -0.000003   0.000515   0.000001  -0.000001
    27  H   -0.000006   0.003423   0.000144   0.002184   0.000029  -0.000031
    28  O   -0.000003  -0.000162   0.000006  -0.000002   0.000000   0.000000
    29  C    0.000000   0.000004   0.000000  -0.000002   0.000000   0.000000
    30  H    0.000000   0.000000   0.000000   0.000000   0.000000   0.000000
    31  H    0.000000   0.000003   0.000000   0.000004   0.000000   0.000000
    32  H    0.000000   0.000000   0.000000   0.000000   0.000000   0.000000
             19         20         21         22         23         24
     1  C    0.000000   0.000000   0.000004   0.001582   0.007386  -0.000288
     2  C   -0.000002  -0.000007   0.000004  -0.021501  -0.008411   0.002394
     3  O   -0.000005  -0.000021   0.001049   0.002662   0.000117  -0.000064
     4  N   -0.000001  -0.000004  -0.000007   0.242818  -0.029481  -0.036984
     5  C   -0.000174   0.000854  -0.000079  -0.037070   0.003146  -0.000361
     6  C    0.003558  -0.004451  -0.000696   0.002987  -0.000115   0.000131
     7  O    0.000717   0.021886   0.000821  -0.000055   0.000002  -0.000007
     8  N   -0.042126  -0.034912  -0.048110  -0.000161   0.000004  -0.000002
     9  C   -0.002888   0.004752  -0.002054   0.000215  -0.000016  -0.000019
    10  C    0.379139   0.384189   0.388927   0.000003   0.000000   0.000000
    11  H    0.000000   0.000000   0.000000   0.000343   0.000008  -0.000012
    12  H    0.000000   0.000000   0.000000  -0.001665  -0.002343   0.000224
    13  H    0.000000   0.000000   0.000000  -0.002910   0.002092   0.000180
    14  H   -0.000007  -0.000062   0.000002   0.001311   0.000077  -0.003752
    15  H    0.000004  -0.000020   0.000001  -0.006294   0.000370   0.005681
    16  H    0.000130  -0.000236  -0.000147  -0.001210   0.000026   0.000073
    17  H    0.006548   0.000115  -0.001800   0.000007   0.000000   0.000000
    18  H   -0.001669  -0.000224   0.006990  -0.000037  -0.000001  -0.000002
    19  H    0.625878  -0.023191  -0.044360   0.000000   0.000000   0.000000
    20  H   -0.023191   0.525987  -0.028902   0.000000   0.000000   0.000000
    21  H   -0.044360  -0.028902   0.606711   0.000000   0.000000   0.000000
    22  C    0.000000   0.000000   0.000000   4.902212   0.377075   0.377902
    23  H    0.000000   0.000000   0.000000   0.377075   0.591367  -0.030705
    24  H    0.000000   0.000000   0.000000   0.377902  -0.030705   0.601156
    25  C    0.000000   0.000000   0.000000   0.361081  -0.041866  -0.048354
    26  H    0.000000   0.000000   0.000000  -0.039606  -0.008844   0.006714
    27  H    0.000000   0.000000   0.000000  -0.039444   0.006495  -0.008037
    28  O    0.000000   0.000000   0.000000  -0.040162   0.005395   0.006189
    29  C    0.000000   0.000000   0.000000   0.004536  -0.000086  -0.000112
    30  H    0.000000   0.000000   0.000000  -0.000256   0.000007   0.000009
    31  H    0.000000   0.000000   0.000000   0.000026   0.000047  -0.000057
    32  H    0.000000   0.000000   0.000000   0.000022  -0.000066   0.000049
             25         26         27         28         29         30
     1  C   -0.001609  -0.000772   0.000102   0.000005   0.000000   0.000000
     2  C   -0.000855   0.001546  -0.000157   0.000014  -0.000002   0.000000
     3  O   -0.000029  -0.000038   0.000001   0.000000   0.000000   0.000000
     4  N   -0.052171   0.002941   0.000952   0.002058  -0.000126   0.000001
     5  C   -0.003061   0.000040   0.000434  -0.000002   0.000000   0.000000
     6  C   -0.000082   0.000016  -0.000125   0.000000   0.000000   0.000000
     7  O   -0.000001   0.000000   0.000001   0.000000   0.000000   0.000000
     8  N    0.000002  -0.000002   0.000014   0.000000   0.000000   0.000000
     9  C   -0.000103  -0.000035  -0.000450   0.000001   0.000000   0.000000
    10  C    0.000000   0.000000  -0.000001   0.000000   0.000000   0.000000
    11  H    0.000019  -0.000040   0.000001   0.000000   0.000000   0.000000
    12  H   -0.000180   0.003766  -0.000102  -0.000069  -0.000004   0.000000
    13  H    0.000083   0.000057  -0.000006  -0.000003   0.000000   0.000000
    14  H    0.000866  -0.000253   0.003423  -0.000162   0.000004   0.000000
    15  H   -0.000431  -0.000003   0.000144   0.000006   0.000000   0.000000
    16  H    0.000719   0.000515   0.002184  -0.000002  -0.000002   0.000000
    17  H   -0.000013   0.000001   0.000029   0.000000   0.000000   0.000000
    18  H    0.000028  -0.000001  -0.000031   0.000000   0.000000   0.000000
    19  H    0.000000   0.000000   0.000000   0.000000   0.000000   0.000000
    20  H    0.000000   0.000000   0.000000   0.000000   0.000000   0.000000
    21  H    0.000000   0.000000   0.000000   0.000000   0.000000   0.000000
    22  C    0.361081  -0.039606  -0.039444  -0.040162   0.004536  -0.000256
    23  H   -0.041866  -0.008844   0.006495   0.005395  -0.000086   0.000007
    24  H   -0.048354   0.006714  -0.008037   0.006189  -0.000112   0.000009
    25  C    4.780716   0.360795   0.364078   0.231073  -0.033955   0.005308
    26  H    0.360795   0.684915  -0.061952  -0.039133  -0.006102  -0.000111
    27  H    0.364078  -0.061952   0.683426  -0.038645  -0.005903  -0.000114
    28  O    0.231073  -0.039133  -0.038645   8.207996   0.257010  -0.032538
    29  C   -0.033955  -0.006102  -0.005903   0.257010   4.709750   0.395284
    30  H    0.005308  -0.000111  -0.000114  -0.032538   0.395284   0.579458
    31  H   -0.009071  -0.002654   0.013139  -0.037347   0.371268  -0.034254
    32  H   -0.009051   0.013129  -0.002718  -0.037358   0.371079  -0.034450
             31         32
     1  C    0.000000  -0.000001
     2  C    0.000000   0.000000
     3  O    0.000000   0.000000
     4  N    0.000011   0.000008
     5  C   -0.000002   0.000000
     6  C    0.000000   0.000000
     7  O    0.000000   0.000000
     8  N    0.000000   0.000000
     9  C   -0.000001   0.000000
    10  C    0.000000   0.000000
    11  H    0.000000   0.000000
    12  H    0.000000   0.000005
    13  H    0.000000   0.000000
    14  H    0.000003   0.000000
    15  H    0.000000   0.000000
    16  H    0.000004   0.000000
    17  H    0.000000   0.000000
    18  H    0.000000   0.000000
    19  H    0.000000   0.000000
    20  H    0.000000   0.000000
    21  H    0.000000   0.000000
    22  C    0.000026   0.000022
    23  H    0.000047  -0.000066
    24  H   -0.000057   0.000049
    25  C   -0.009071  -0.009051
    26  H   -0.002654   0.013129
    27  H    0.013139  -0.002718
    28  O   -0.037347  -0.037358
    29  C    0.371268   0.371079
    30  H   -0.034254  -0.034450
    31  H    0.655124  -0.051879
    32  H   -0.051879   0.656357
 Mulliken atomic charges:
              1
     1  C   -0.407774
     2  C    0.575059
     3  O   -0.504047
     4  N   -0.449335
     5  C   -0.120492
     6  C    0.603889
     7  O   -0.519951
     8  N   -0.424884
     9  C   -0.169653
    10  C   -0.176447
    11  H    0.146999
    12  H    0.122800
    13  H    0.139362
    14  H    0.116690
    15  H    0.146260
    16  H    0.110248
    17  H    0.108566
    18  H    0.126765
    19  H    0.098448
    20  H    0.154245
    21  H    0.121646
    22  C   -0.084413
    23  H    0.128319
    24  H    0.128055
    25  C    0.096065
    26  H    0.085107
    27  H    0.083263
    28  O   -0.484326
    29  C   -0.062639
    30  H    0.121657
    31  H    0.095644
    32  H    0.094875
 Sum of Mulliken atomic charges =   0.00000
 Mulliken charges with hydrogens summed into heavy atoms:
              1
     1  C    0.001387
     2  C    0.575059
     3  O   -0.504047
     4  N   -0.449335
     5  C    0.142458
     6  C    0.603889
     7  O   -0.519951
     8  N   -0.424884
     9  C    0.175926
    10  C    0.197892
    22  C    0.171962
    25  C    0.264434
    28  O   -0.484326
    29  C    0.249537
 Sum of Mulliken charges with hydrogens summed into heavy atoms =   0.00000
 Electronic spatial extent (au):  <R**2>=           3709.8850
 Charge=              0.0000 electrons
 Dipole moment (field-independent basis, Debye):
    X=              4.8887    Y=             -1.9643    Z=             -2.8675  Tot=              5.9984
 Quadrupole moment (field-independent basis, Debye-Ang):
   XX=            -89.8572   YY=            -81.5429   ZZ=            -86.3343
   XY=              3.8255   XZ=              5.1258   YZ=              1.8598
 Traceless Quadrupole moment (field-independent basis, Debye-Ang):
   XX=             -3.9458   YY=              4.3686   ZZ=             -0.4228
   XY=              3.8255   XZ=              5.1258   YZ=              1.8598
 Octapole moment (field-independent basis, Debye-Ang**2):
  XXX=             33.6322  YYY=              6.5065  ZZZ=             -3.1704  XYY=             16.0400
  XXY=            -30.5914  XXZ=            -41.5111  XZZ=             11.6770  YZZ=              0.8575
  YYZ=             -0.5388  XYZ=             -1.6664
 Hexadecapole moment (field-independent basis, Debye-Ang**3):
 XXXX=          -3114.0448 YYYY=           -914.5666 ZZZZ=           -531.1569 XXXY=            -70.7884
 XXXZ=             21.5871 YYYX=              3.6728 YYYZ=             -0.5628 ZZZX=             25.0687
 ZZZY=             -2.8789 XXYY=           -678.5846 XXZZ=           -678.8464 YYZZ=           -237.1451
 XXYZ=             22.8306 YYXZ=             -0.1659 ZZXY=              2.2214
 N-N= 9.781130508934D+02 E-N=-3.561860976155D+03  KE= 6.826140475953D+02
 Calling FoFJK, ICntrl=      2127 FMM=F ISym2X=0 I1Cent= 0 IOpClX= 0 NMat=1 NMatS=1 NMatT=0.
 ***** Axes restored to original set *****
 -------------------------------------------------------------------
 Center     Atomic                   Forces (Hartrees/Bohr)
 Number     Number              X              Y              Z
 -------------------------------------------------------------------
      1        6           0.000003281    0.000000444   -0.000008389
      2        6           0.000013282    0.000261242    0.000368499
      3        8           0.000002510   -0.000002181   -0.000003326
      4        7           0.000013658   -0.000534730   -0.000694839
      5        6          -0.000121353    0.000555220    0.000592988
      6        6           0.000088317   -0.000279518   -0.000273015
      7        8          -0.000000340    0.000006654    0.000001462
      8        7           0.000010344   -0.000003943   -0.000000675
      9        6          -0.000005081   -0.000000132    0.000010010
     10        6          -0.000004706   -0.000001356    0.000003166
     11        1          -0.000000932   -0.000004113   -0.000008390
     12        1          -0.000000444   -0.000003072   -0.000005464
     13        1           0.000000011    0.000000099   -0.000008184
     14        1          -0.000000091    0.000004940    0.000001914
     15        1          -0.000000952    0.000007545    0.000000113
     16        1          -0.000001153   -0.000002819    0.000002855
     17        1           0.000000798   -0.000004761    0.000005522
     18        1           0.000000849   -0.000004478   -0.000002615
     19        1           0.000000773   -0.000001698    0.000004760
     20        1           0.000000380    0.000001763    0.000003068
     21        1           0.000000120   -0.000003067    0.000000156
     22        6          -0.000001136    0.000004378   -0.000000687
     23        1           0.000000523    0.000003390   -0.000005065
     24        1          -0.000000236    0.000004199   -0.000001158
     25        6           0.000006518    0.000001887    0.000002163
     26        1          -0.000000640   -0.000003185   -0.000000556
     27        1          -0.000000565   -0.000000873    0.000002475
     28        8          -0.000004311    0.000000690   -0.000000881
     29        6           0.000000241   -0.000000200    0.000003355
     30        1           0.000000503    0.000000613    0.000002958
     31        1           0.000000141    0.000000108    0.000005668
     32        1          -0.000000310   -0.000003046    0.000002113
 -------------------------------------------------------------------
 Cartesian Forces:  Max     0.000694839 RMS     0.000137285

 GradGradGradGradGradGradGradGradGradGradGradGradGradGradGradGradGradGrad
 Berny optimization.
 Internal  Forces:  Max     0.000384809 RMS     0.000051868
 Search for a local minimum.
 Step number   1 out of a maximum of  155 on scan point     1 out of    37
 All quantities printed in internal units (Hartrees-Bohrs-Radians)
 Mixed Optimization -- En-DIIS/RFO-DIIS
 Second derivative matrix not updated -- first step.
 ITU=  0
     Eigenvalues ---    0.00359   0.00448   0.00736   0.00863   0.00935
     Eigenvalues ---    0.01010   0.01063   0.01077   0.01501   0.01509
     Eigenvalues ---    0.01549   0.01990   0.02031   0.02367   0.04114
     Eigenvalues ---    0.05357   0.05493   0.05885   0.06208   0.06848
     Eigenvalues ---    0.07320   0.07473   0.07480   0.07565   0.07670
     Eigenvalues ---    0.09467   0.10039   0.10513   0.10928   0.11095
     Eigenvalues ---    0.11764   0.12915   0.13611   0.16000   0.16000
     Eigenvalues ---    0.16000   0.16000   0.16000   0.16000   0.16000
     Eigenvalues ---    0.16000   0.16000   0.16000   0.16000   0.16000
     Eigenvalues ---    0.21925   0.21944   0.22143   0.23081   0.23895
     Eigenvalues ---    0.24299   0.24646   0.24686   0.24999   0.25000
     Eigenvalues ---    0.25000   0.25000   0.28310   0.29353   0.29982
     Eigenvalues ---    0.33270   0.33304   0.33576   0.33577   0.33834
     Eigenvalues ---    0.33864   0.33991   0.34184   0.34190   0.34193
     Eigenvalues ---    0.34230   0.34287   0.34399   0.34574   0.34751
     Eigenvalues ---    0.34853   0.34882   0.35021   0.35385   0.36635
     Eigenvalues ---    0.37313   0.38045   0.43406   0.43881   0.49565
     Eigenvalues ---    0.50147   0.92735   0.933911000.000001000.00000
     Eigenvalues --- 1000.000001000.000001000.000001000.000001000.00000
     Eigenvalues --- 1000.000001000.000001000.000001000.000001000.00000
     Eigenvalues --- 1000.000001000.000001000.000001000.000001000.00000
     Eigenvalues --- 1000.000001000.000001000.000001000.000001000.00000
     Eigenvalues --- 1000.000001000.000001000.000001000.000001000.00000
     Eigenvalues --- 1000.000001000.000001000.000001000.000001000.00000
     Eigenvalues --- 1000.000001000.000001000.000001000.000001000.00000
     Eigenvalues --- 1000.000001000.000001000.000001000.000001000.00000
     Eigenvalues --- 1000.000001000.000001000.000001000.000001000.00000
     Eigenvalues --- 1000.000001000.000001000.000001000.000001000.00000
     Eigenvalues --- 1000.000001000.000001000.000001000.000001000.00000
 RFO step:  Lambda= 0.00000000D+00 EMin= 3.59040882D-03
 Linear search not attempted -- first point.
 Iteration  1 RMS(Cart)=  0.00010463 RMS(Int)=  0.00000000
 Iteration  2 RMS(Cart)=  0.00000001 RMS(Int)=  0.00000000
 Iteration  1 RMS(Cart)=  0.00000000 RMS(Int)=  0.00000000
 Variable       Old X    -DE/DX   Delta X   Delta X   Delta X     New X
                                 (Linear)    (Quad)   (Total)
    R1        2.87999   0.00000   0.00000   0.00001   0.00001   2.87999
    R2        2.05867   0.00000   0.00000   0.00000   0.00000   2.05867
    R3        2.06662   0.00000   0.00000   0.00000   0.00000   2.06662
    R4        2.07010   0.00000   0.00000   0.00000   0.00000   2.07010
    R5        2.31698   0.00000   0.00000   0.00000   0.00000   2.31697
    R6        2.60307   0.00000   0.00000  -0.00001  -0.00001   2.60307
    R7        2.78354   0.00000   0.00000  -0.00001  -0.00001   2.78353
    R8        2.76400   0.00000   0.00000   0.00000   0.00000   2.76400
    R9        2.91466   0.00000   0.00000   0.00000   0.00000   2.91466
   R10        2.07346   0.00000   0.00000   0.00000   0.00000   2.07345
   R11        2.06849   0.00000   0.00000   0.00000   0.00000   2.06849
   R12        2.31408   0.00000   0.00000   0.00000   0.00000   2.31409
   R13        2.59718   0.00000   0.00000   0.00000   0.00000   2.59717
   R14        2.74300  -0.00001   0.00000  -0.00002  -0.00002   2.74299
   R15        2.75377   0.00000   0.00000   0.00001   0.00001   2.75378
   R16        2.05914   0.00000   0.00000   0.00000   0.00000   2.05914
   R17        2.07005   0.00000   0.00000   0.00000   0.00000   2.07005
   R18        2.07560   0.00000   0.00000   0.00001   0.00001   2.07561
   R19        2.06944   0.00000   0.00000   0.00000   0.00000   2.06943
   R20        2.05641   0.00000   0.00000   0.00000   0.00000   2.05641
   R21        2.07612   0.00000   0.00000   0.00000   0.00000   2.07612
   R22        2.06081   0.00000   0.00000   0.00000   0.00000   2.06081
   R23        2.07021   0.00000   0.00000   0.00000   0.00000   2.07021
   R24        2.89272   0.00000   0.00000   0.00001   0.00001   2.89273
   R25        2.08521   0.00000   0.00000   0.00000   0.00000   2.08521
   R26        2.08580   0.00000   0.00000   0.00000   0.00000   2.08580
   R27        2.66598   0.00000   0.00000  -0.00001  -0.00001   2.66597
   R28        2.67171   0.00000   0.00000   0.00000   0.00000   2.67171
   R29        2.06372   0.00000   0.00000   0.00000   0.00000   2.06372
   R30        2.08050   0.00000   0.00000   0.00000   0.00000   2.08050
   R31        2.08052   0.00000   0.00000   0.00000   0.00000   2.08052
    A1        1.86678   0.00000   0.00000  -0.00001  -0.00001   1.86677
    A2        1.97486   0.00000   0.00000   0.00000   0.00000   1.97486
    A3        1.93677   0.00000   0.00000   0.00000   0.00000   1.93677
    A4        1.90875   0.00000   0.00000   0.00000   0.00000   1.90876
    A5        1.89249   0.00000   0.00000   0.00001   0.00001   1.89249
    A6        1.88274   0.00000   0.00000   0.00000   0.00000   1.88274
    A7        2.10137   0.00000   0.00000   0.00001   0.00001   2.10138
    A8        2.05295   0.00000   0.00000   0.00000   0.00000   2.05294
    A9        2.12882   0.00000   0.00000  -0.00001  -0.00001   2.12881
   A10        2.11627   0.00001   0.00000  -0.00001  -0.00001   2.11626
   A11        2.15444  -0.00005   0.00000   0.00000   0.00000   2.15444
   A12        1.99457   0.00001   0.00000   0.00001   0.00001   1.99458
   A13        2.08906  -0.00001   0.00000  -0.00006  -0.00006   2.08900
   A14        1.87949  -0.00001   0.00000   0.00001   0.00001   1.87950
   A15        1.90405   0.00002   0.00000   0.00001   0.00001   1.90406
   A16        1.89323  -0.00015   0.00000   0.00002   0.00002   1.89325
   A17        1.81109   0.00016   0.00000   0.00000   0.00000   1.81109
   A18        1.87724   0.00000   0.00000   0.00002   0.00002   1.87726
   A19        2.06117   0.00000   0.00000   0.00000   0.00000   2.06117
   A20        2.07012   0.00000   0.00000   0.00000   0.00000   2.07012
   A21        2.13824   0.00000   0.00000   0.00001   0.00001   2.13825
   A22        2.16087   0.00000   0.00000   0.00000   0.00000   2.16087
   A23        2.04711   0.00000   0.00000  -0.00001  -0.00001   2.04710
   A24        2.00853   0.00000   0.00000   0.00000   0.00000   2.00853
   A25        1.93892   0.00000   0.00000  -0.00001  -0.00001   1.93891
   A26        1.90835   0.00000   0.00000   0.00000   0.00000   1.90835
   A27        1.94628   0.00000   0.00000   0.00003   0.00003   1.94631
   A28        1.88457   0.00000   0.00000  -0.00001  -0.00001   1.88455
   A29        1.88932   0.00000   0.00000   0.00000   0.00000   1.88932
   A30        1.89484   0.00000   0.00000  -0.00001  -0.00001   1.89483
   A31        1.91230   0.00000   0.00000   0.00000   0.00000   1.91230
   A32        1.89613   0.00000   0.00000   0.00000   0.00000   1.89613
   A33        1.93881   0.00000   0.00000   0.00000   0.00000   1.93880
   A34        1.91952   0.00000   0.00000   0.00001   0.00001   1.91953
   A35        1.89839   0.00000   0.00000   0.00000   0.00000   1.89838
   A36        1.89869   0.00000   0.00000   0.00000   0.00000   1.89869
   A37        1.93125   0.00000   0.00000   0.00000   0.00000   1.93125
   A38        1.90077   0.00000   0.00000   0.00000   0.00000   1.90077
   A39        1.97178   0.00000   0.00000   0.00001   0.00001   1.97178
   A40        1.85781   0.00000   0.00000   0.00001   0.00001   1.85782
   A41        1.90112   0.00000   0.00000   0.00000   0.00000   1.90112
   A42        1.89735   0.00000   0.00000  -0.00001  -0.00001   1.89735
   A43        1.92209   0.00000   0.00000   0.00000   0.00000   1.92210
   A44        1.92718   0.00000   0.00000   0.00000   0.00000   1.92718
   A45        1.87166   0.00000   0.00000   0.00000   0.00000   1.87165
   A46        1.86822   0.00000   0.00000  -0.00001  -0.00001   1.86821
   A47        1.93985   0.00000   0.00000   0.00001   0.00001   1.93985
   A48        1.93558   0.00000   0.00000   0.00000   0.00000   1.93558
   A49        1.97423   0.00000   0.00000   0.00001   0.00001   1.97423
   A50        1.87132   0.00000   0.00000   0.00000   0.00000   1.87132
   A51        1.94993   0.00000   0.00000   0.00000   0.00000   1.94993
   A52        1.95037   0.00000   0.00000   0.00000   0.00000   1.95037
   A53        1.90058   0.00000   0.00000   0.00000   0.00000   1.90058
   A54        1.90068   0.00000   0.00000   0.00000   0.00000   1.90068
   A55        1.88996   0.00000   0.00000   0.00000   0.00000   1.88996
    D1       -0.17447   0.00000   0.00000  -0.00001  -0.00001  -0.17448
    D2        2.95647   0.00000   0.00000  -0.00001  -0.00001   2.95645
    D3       -2.27741   0.00000   0.00000  -0.00001  -0.00001  -2.27742
    D4        0.85353   0.00000   0.00000  -0.00001  -0.00001   0.85352
    D5        1.88657   0.00000   0.00000  -0.00001  -0.00001   1.88657
    D6       -1.26567   0.00000   0.00000  -0.00001  -0.00001  -1.26568
    D7        3.02500  -0.00006   0.00000   0.00000   0.00000   3.02500
    D8        0.09729   0.00006   0.00000   0.00001   0.00001   0.09730
    D9       -0.12743  -0.00006   0.00000   0.00000   0.00000  -0.12743
   D10       -3.05513   0.00006   0.00000   0.00000   0.00000  -3.05513
   D11        0.32585   0.00038   0.00000   0.00000   0.00000   0.32585
   D12        2.49675   0.00015   0.00000  -0.00001  -0.00001   2.49674
   D13       -1.75396   0.00015   0.00000   0.00003   0.00003  -1.75393
   D14       -3.01129   0.00026   0.00000  -0.00001  -0.00001  -3.01130
   D15       -0.84040   0.00003   0.00000  -0.00001  -0.00001  -0.84041
   D16        1.19208   0.00003   0.00000   0.00002   0.00002   1.19210
   D17        0.36375  -0.00006   0.00000   0.00000   0.00000   0.36374
   D18        2.40006  -0.00006   0.00000   0.00001   0.00001   2.40006
   D19       -1.77309  -0.00006   0.00000   0.00000   0.00000  -1.77309
   D20       -2.57745   0.00006   0.00000   0.00001   0.00001  -2.57744
   D21       -0.54114   0.00006   0.00000   0.00001   0.00001  -0.54112
   D22        1.56891   0.00006   0.00000   0.00001   0.00001   1.56892
   D23       -2.04856  -0.00011   0.00000   0.00012   0.00012  -2.04844
   D24        1.26534  -0.00011   0.00000   0.00000   0.00000   1.26534
   D25        2.07034   0.00006   0.00000   0.00013   0.00013   2.07047
   D26       -0.89895   0.00006   0.00000   0.00001   0.00001  -0.89894
   D27        0.07782   0.00005   0.00000   0.00009   0.00009   0.07792
   D28       -2.89147   0.00005   0.00000  -0.00002  -0.00002  -2.89149
   D29       -0.36306   0.00000   0.00000   0.00006   0.00006  -0.36300
   D30       -3.10080   0.00000   0.00000   0.00009   0.00009  -3.10070
   D31        2.95886   0.00000   0.00000  -0.00006  -0.00006   2.95880
   D32        0.22113   0.00000   0.00000  -0.00003  -0.00003   0.22110
   D33        0.52931   0.00000   0.00000  -0.00001  -0.00001   0.52930
   D34        2.60758   0.00000   0.00000  -0.00003  -0.00003   2.60755
   D35       -1.57997   0.00000   0.00000  -0.00002  -0.00002  -1.57999
   D36       -3.00812   0.00000   0.00000  -0.00004  -0.00004  -3.00816
   D37       -0.92985   0.00000   0.00000  -0.00006  -0.00006  -0.92991
   D38        1.16578   0.00000   0.00000  -0.00005  -0.00005   1.16573
   D39       -2.55110   0.00000   0.00000  -0.00001  -0.00001  -2.55110
   D40       -0.45368   0.00000   0.00000   0.00000   0.00000  -0.45368
   D41        1.63419   0.00000   0.00000   0.00000   0.00000   1.63419
   D42        0.95931   0.00000   0.00000   0.00002   0.00002   0.95933
   D43        3.05672   0.00000   0.00000   0.00003   0.00003   3.05675
   D44       -1.13860   0.00000   0.00000   0.00003   0.00003  -1.13857
   D45        1.07818   0.00000   0.00000   0.00000   0.00000   1.07818
   D46       -0.98133   0.00000   0.00000   0.00001   0.00001  -0.98132
   D47       -3.09207   0.00000   0.00000   0.00001   0.00001  -3.09205
   D48       -1.07541   0.00000   0.00000   0.00000   0.00000  -1.07540
   D49       -3.13491   0.00000   0.00000   0.00001   0.00001  -3.13490
   D50        1.03754   0.00000   0.00000   0.00001   0.00001   1.03755
   D51       -3.09302   0.00000   0.00000   0.00000   0.00000  -3.09302
   D52        1.13066   0.00000   0.00000   0.00001   0.00001   1.13066
   D53       -0.98008   0.00000   0.00000   0.00001   0.00001  -0.98007
   D54        3.13769   0.00000   0.00000  -0.00001  -0.00001   3.13769
   D55       -1.04379   0.00000   0.00000   0.00000   0.00000  -1.04379
   D56        1.03227   0.00000   0.00000  -0.00001  -0.00001   1.03227
   D57        3.14028   0.00000   0.00000  -0.00001  -0.00001   3.14027
   D58       -1.06183   0.00000   0.00000  -0.00001  -0.00001  -1.06184
   D59        1.05884   0.00000   0.00000  -0.00001  -0.00001   1.05882
         Item               Value     Threshold  Converged?
 Maximum Force            0.000011     0.000450     YES
 RMS     Force            0.000002     0.000300     YES
 Maximum Displacement     0.000452     0.001800     YES
 RMS     Displacement     0.000105     0.001200     YES
 Predicted change in Energy=-1.175796D-09
 Optimization completed.
    -- Stationary point found.
                           ----------------------------
                           !   Optimized Parameters   !
                           ! (Angstroms and Degrees)  !
 --------------------------                            --------------------------
 ! Name  Definition              Value          Derivative Info.                !
 --------------------------------------------------------------------------------
 ! R1    R(1,2)                  1.524          -DE/DX =    0.0                 !
 ! R2    R(1,11)                 1.0894         -DE/DX =    0.0                 !
 ! R3    R(1,12)                 1.0936         -DE/DX =    0.0                 !
 ! R4    R(1,13)                 1.0955         -DE/DX =    0.0                 !
 ! R5    R(2,3)                  1.2261         -DE/DX =    0.0                 !
 ! R6    R(2,4)                  1.3775         -DE/DX =    0.0                 !
 ! R7    R(4,5)                  1.473          -DE/DX =    0.0                 !
 ! R8    R(4,22)                 1.4626         -DE/DX =    0.0                 !
 ! R9    R(5,6)                  1.5424         -DE/DX =    0.0                 !
 ! R10   R(5,14)                 1.0972         -DE/DX =    0.0                 !
 ! R11   R(5,15)                 1.0946         -DE/DX =    0.0                 !
 ! R12   R(6,7)                  1.2246         -DE/DX =    0.0                 !
 ! R13   R(6,8)                  1.3744         -DE/DX =    0.0                 !
 ! R14   R(8,9)                  1.4515         -DE/DX =    0.0                 !
 ! R15   R(8,10)                 1.4572         -DE/DX =    0.0                 !
 ! R16   R(9,16)                 1.0897         -DE/DX =    0.0                 !
 ! R17   R(9,17)                 1.0954         -DE/DX =    0.0                 !
 ! R18   R(9,18)                 1.0984         -DE/DX =    0.0                 !
 ! R19   R(10,19)                1.0951         -DE/DX =    0.0                 !
 ! R20   R(10,20)                1.0882         -DE/DX =    0.0                 !
 ! R21   R(10,21)                1.0986         -DE/DX =    0.0                 !
 ! R22   R(22,23)                1.0905         -DE/DX =    0.0                 !
 ! R23   R(22,24)                1.0955         -DE/DX =    0.0                 !
 ! R24   R(22,25)                1.5308         -DE/DX =    0.0                 !
 ! R25   R(25,26)                1.1034         -DE/DX =    0.0                 !
 ! R26   R(25,27)                1.1038         -DE/DX =    0.0                 !
 ! R27   R(25,28)                1.4108         -DE/DX =    0.0                 !
 ! R28   R(28,29)                1.4138         -DE/DX =    0.0                 !
 ! R29   R(29,30)                1.0921         -DE/DX =    0.0                 !
 ! R30   R(29,31)                1.101          -DE/DX =    0.0                 !
 ! R31   R(29,32)                1.101          -DE/DX =    0.0                 !
 ! A1    A(2,1,11)             106.9584         -DE/DX =    0.0                 !
 ! A2    A(2,1,12)             113.1511         -DE/DX =    0.0                 !
 ! A3    A(2,1,13)             110.9687         -DE/DX =    0.0                 !
 ! A4    A(11,1,12)            109.3634         -DE/DX =    0.0                 !
 ! A5    A(11,1,13)            108.4314         -DE/DX =    0.0                 !
 ! A6    A(12,1,13)            107.8728         -DE/DX =    0.0                 !
 ! A7    A(1,2,3)              120.3996         -DE/DX =    0.0                 !
 ! A8    A(1,2,4)              117.6251         -DE/DX =    0.0                 !
 ! A9    A(3,2,4)              121.9723         -DE/DX =    0.0                 !
 ! A10   A(2,4,5)              121.2535         -DE/DX =    0.0                 !
 ! A11   A(2,4,22)             123.4404         -DE/DX =    0.0                 !
 ! A12   A(5,4,22)             114.2802         -DE/DX =    0.0                 !
 ! A13   A(4,5,6)              119.6943         -DE/DX =    0.0                 !
 ! A14   A(4,5,14)             107.6867         -DE/DX =    0.0                 !
 ! A15   A(4,5,15)             109.0941         -DE/DX =    0.0                 !
 ! A16   A(6,5,14)             108.4743         -DE/DX =   -0.0002              !
[...]
   D17        0.42659   0.00089   0.00155  -0.00355  -0.00200   0.42459
   D18        2.47248   0.00088   0.00146  -0.00357  -0.00211   2.47037
   D19       -1.70500   0.00086   0.00146  -0.00359  -0.00214  -1.70714
   D20       -2.44829  -0.00087   0.00024  -0.00486  -0.00463  -2.45291
   D21       -0.40240  -0.00089   0.00015  -0.00488  -0.00473  -0.40713
   D22        1.70330  -0.00090   0.00014  -0.00490  -0.00476   1.69854
   D23       -0.82789  -0.00262   0.00210   0.00099   0.00309  -0.82479
   D24        2.66161  -0.00699   0.00000   0.00000   0.00000   2.66160
   D25       -3.06212  -0.00062   0.00395   0.00111   0.00507  -3.05705
   D26        0.42737  -0.00499   0.00185   0.00012   0.00197   0.42934
   D27        1.27429  -0.00054   0.00405   0.00096   0.00501   1.27930
   D28       -1.51941  -0.00491   0.00195  -0.00004   0.00192  -1.51749
   D29       -0.81984   0.00206   0.00149   0.00556   0.00705  -0.81279
   D30        2.82580   0.00200   0.00119   0.00041   0.00159   2.82739
   D31        2.66210  -0.00189  -0.00050   0.00431   0.00381   2.66591
   D32        0.02455  -0.00195  -0.00081  -0.00084  -0.00165   0.02290
   D33        0.34035   0.00000  -0.00080  -0.00927  -0.01007   0.33028
   D34        2.44519  -0.00003  -0.00087  -0.00898  -0.00985   2.43534
   D35       -1.75246   0.00001  -0.00075  -0.00872  -0.00947  -1.76193
   D36        2.98909   0.00001  -0.00059  -0.00432  -0.00491   2.98418
   D37       -1.18925  -0.00002  -0.00066  -0.00403  -0.00469  -1.19394
   D38        0.89629   0.00002  -0.00055  -0.00377  -0.00431   0.89197
   D39       -2.72076   0.00001  -0.00025   0.00326   0.00301  -2.71775
   D40       -0.62393   0.00001  -0.00033   0.00342   0.00309  -0.62084
   D41        1.46740   0.00001  -0.00032   0.00337   0.00305   1.47045
   D42        0.86713  -0.00001  -0.00051  -0.00160  -0.00210   0.86503
   D43        2.96396   0.00000  -0.00059  -0.00143  -0.00202   2.96193
   D44       -1.22790  -0.00001  -0.00058  -0.00148  -0.00206  -1.22996
   D45        1.08608   0.00000  -0.00005   0.00021   0.00016   1.08624
   D46       -0.96606   0.00001  -0.00006   0.00032   0.00026  -0.96580
   D47       -3.08150  -0.00001  -0.00007   0.00004  -0.00003  -3.08153
   D48       -1.07130  -0.00001  -0.00005   0.00027   0.00022  -1.07109
   D49       -3.12344   0.00000  -0.00006   0.00038   0.00031  -3.12313
   D50        1.04431  -0.00001  -0.00007   0.00009   0.00002   1.04433
   D51       -3.08191   0.00000  -0.00009   0.00035   0.00026  -3.08165
   D52        1.14914   0.00001  -0.00010   0.00046   0.00035   1.14950
   D53       -0.96630  -0.00001  -0.00011   0.00017   0.00006  -0.96623
   D54       -3.12285  -0.00001   0.00003   0.00088   0.00092  -3.12194
   D55       -1.02116   0.00000   0.00008   0.00057   0.00065  -1.02051
   D56        1.05197   0.00001   0.00010   0.00067   0.00077   1.05274
   D57       -3.13922  -0.00003  -0.00001  -0.00073  -0.00074  -3.13996
   D58       -1.05771  -0.00003  -0.00003  -0.00070  -0.00073  -1.05844
   D59        1.06175  -0.00004  -0.00001  -0.00081  -0.00081   1.06094
         Item               Value     Threshold  Converged?
 Maximum Force            0.000171     0.000450     YES
 RMS     Force            0.000050     0.000300     YES
 Maximum Displacement     0.021617     0.001800     NO 
 RMS     Displacement     0.005716     0.001200     NO 
 Predicted change in Energy=-2.421460D-06
 GradGradGradGradGradGradGradGradGradGradGradGradGradGradGradGradGradGrad

                          Input orientation:                          
 ---------------------------------------------------------------------
 Center     Atomic      Atomic             Coordinates (Angstroms)
 Number     Number       Type             X           Y           Z
 ---------------------------------------------------------------------
      1          6           0        1.287717    3.188070    0.100651
      2          6           0        0.222676    2.159500   -0.282976
      3          8           0       -0.725106    2.497082   -0.967077
      4          7           0        0.434164    0.840856    0.125286
      5          6           0       -0.605222   -0.174251    0.369329
      6          6           0       -2.042259   -0.062840   -0.179760
      7          8           0       -2.700376    0.957466   -0.088636
      8          7           0       -2.667559   -1.291773   -0.380753
      9          6           0       -2.059983   -2.440328   -1.045514
     10          6           0       -4.122624   -1.255716   -0.500048
     11          1           0        0.949490    4.142406   -0.301135
     12          1           0        2.269370    2.957463   -0.325351
     13          1           0        1.405241    3.277365    1.185852
     14          1           0       -0.167996   -1.138878    0.109463
     15          1           0       -0.787189   -0.217598    1.455449
     16          1           0       -0.974759   -2.361072   -1.077585
     17          1           0       -2.321991   -3.367345   -0.522143
     18          1           0       -2.415644   -2.525094   -2.082224
     19          1           0       -4.522224   -2.235634   -0.220993
     20          1           0       -4.519139   -0.488541    0.162639
     21          1           0       -4.445586   -1.023595   -1.524190
     22          6           0        1.711047    0.431813    0.721464
     23          1           0        2.229473    1.277181    1.173008
     24          1           0        1.527560   -0.280897    1.532818
     25          6           0        2.634188   -0.223202   -0.308054
     26          1           0        2.881690    0.499319   -1.103814
     27          1           0        2.124294   -1.072866   -0.794543
     28          8           0        3.795882   -0.652052    0.371021
     29          6           0        4.744838   -1.255848   -0.484233
     30          1           0        5.596654   -1.550834    0.132644
     31          1           0        4.337077   -2.151021   -0.979448
     32          1           0        5.092955   -0.560381   -1.263567
 ---------------------------------------------------------------------
                    Distance matrix (angstroms):
                    1          2          3          4          5
     1  C    0.000000
     2  C    1.529522   0.000000
     3  O    2.380959   1.216655   0.000000
     4  N    2.497713   1.396505   2.297879   0.000000
     5  C    3.867895   2.560725   2.989377   1.473202   0.000000
     6  C    4.662165   3.174804   2.984620   2.653751   1.542397
     7  O    4.573436   3.166527   2.654010   3.143995   2.424910
     8  N    5.995411   4.502700   4.297944   3.798009   2.462664
     9  C    6.648282   5.191379   5.115277   4.284590   3.041910
    10  C    7.027081   5.531045   5.083772   5.054797   3.781203
    11  H    1.089306   2.111991   2.440255   3.368624   4.636829
    12  H    1.094668   2.197156   3.096877   2.837442   4.307377
    13  H    1.095192   2.192153   3.127671   2.829198   4.077048
    14  H    4.565267   3.344537   3.832690   2.069347   1.090505
    15  H    4.211804   3.113285   3.638953   2.093171   1.102110
    16  H    6.107374   4.743503   4.865819   3.699231   2.648075
    17  H    7.509417   6.089216   6.094220   5.071935   3.733346
    18  H    7.149830   5.669519   5.415138   4.931950   3.848922
    19  H    7.954586   6.468008   6.113374   5.843842   4.465499
    20  H    6.873201   5.449358   4.958315   5.128733   3.931952
    21  H    7.297191   5.784927   5.152428   5.478039   4.365226
    22  C    2.856846   2.491796   3.612665   1.467370   2.420003
    23  H    2.385026   2.631655   3.846773   2.123967   3.284517
    24  H    3.760633   3.309889   4.363617   2.105942   2.431839
    25  C    3.690095   3.390175   4.372541   2.481957   3.309837
    26  H    3.349756   3.240421   4.125376   2.760021   3.844789
    27  H    4.433600   3.784975   4.570927   2.713845   3.100381
    28  O    4.594620   4.593510   5.669822   3.686503   4.426964
    29  C    5.660581   5.670542   6.651158   4.832141   5.524632
    30  H    6.405089   6.543619   7.586808   5.689599   6.357221
    31  H    6.242685   5.999497   6.872461   5.040288   5.491188
    32  H    5.512877   5.663826   6.579196   5.059319   5.940090
                    6          7          8          9         10
     6  C    0.000000
     7  O    1.217557   0.000000
     8  N    1.393440   2.268366   0.000000
     9  C    2.530275   3.587578   1.459532   0.000000
    10  C    2.419392   2.662747   1.460393   2.440354   0.000000
    11  H    5.162304   4.848765   6.528376   7.276222   7.409833
    12  H    5.266267   5.362313   6.514012   6.956873   7.657609
    13  H    4.990703   4.884910   6.318146   7.048317   7.344955
    14  H    2.180452   3.293455   2.551764   2.570478   4.003028
    15  H    2.067138   2.724933   2.839239   3.579853   4.003346
    16  H    2.688404   3.868910   2.120034   1.088587   3.385915
    17  H    3.333951   4.362923   2.108887   1.096324   2.775202
    18  H    3.133924   4.022895   2.116493   1.099294   2.651110
    19  H    3.297417   3.678659   2.087146   2.604681   1.094437
    20  H    2.536413   2.337086   2.090169   3.364008   1.088547
    21  H    2.916594   3.005191   2.130904   2.815558   1.098660
    22  C    3.891554   4.515886   4.832993   5.058861   6.194478
    23  H    4.676894   5.098763   5.744095   6.094354   7.040158
    24  H    3.965360   4.694476   4.720450   4.917459   6.083371
    25  C    4.680955   5.468062   5.408850   5.243543   6.837943
    26  H    5.041346   5.692095   5.875797   5.750222   7.246040
    27  H    4.331082   5.281855   4.814665   4.409208   6.256528
    28  O    5.893591   6.708442   6.538384   6.284557   7.989111
    29  C    6.897873   7.777305   7.413206   6.929908   8.867476
    30  H    7.788756   8.670712   8.284196   7.797650   9.744319
    31  H    6.759877   7.744804   7.082491   6.403940   8.520443
    32  H    7.234187   8.026228   7.844735   7.399072   9.273260
                   11         12         13         14         15
    11  H    0.000000
    12  H    1.773911   0.000000
    13  H    1.779645   1.769968   0.000000
    14  H    5.413809   4.786422   4.810082   0.000000
    15  H    5.011116   4.753401   4.134513   1.744659   0.000000
    16  H    6.826480   6.275113   6.525298   1.885128   3.323540
    17  H    8.194376   7.818090   7.807796   3.163019   4.023356
    18  H    7.678018   7.422559   7.677760   3.431764   4.526757
    19  H    8.403896   8.550140   8.216277   4.502374   4.564363
    20  H    7.180993   7.628691   7.094173   4.399796   3.958815
    21  H    7.569034   7.897890   7.750791   4.580381   4.786622
    22  C    3.923542   2.790422   2.899368   2.524365   2.683590
    23  H    3.467127   2.251670   2.163390   3.565997   3.378519
    24  H    4.823190   3.806580   3.577230   2.374233   2.316907
    25  C    4.679401   3.201566   3.999504   2.977419   3.849130
    26  H    4.201163   2.650172   3.891016   3.668285   4.530394
    27  H    5.368676   4.060140   4.833581   2.464991   3.777656
    28  O    5.616099   3.980424   4.671127   4.002217   4.729617
    29  C    6.601465   4.889292   5.872998   4.949959   5.953457
    30  H    7.361880   5.621861   6.479868   5.779398   6.654381
    31  H    7.179352   5.549764   6.538468   4.744033   5.993743
    32  H    6.341198   4.607398   5.858940   5.467859   6.487422
                   16         17         18         19         20
    16  H    0.000000
    17  H    1.770914   0.000000
    18  H    1.764186   1.775390   0.000000
    19  H    3.651574   2.492486   2.825889   0.000000
    20  H    4.196088   3.685634   3.689397   1.788719   0.000000
    21  H    3.746324   3.317668   2.585840   1.781358   1.771182
    22  C    4.272041   5.678518   5.799443   6.845230   6.322543
    23  H    5.345012   6.720193   6.828685   7.737475   7.048573
    24  H    4.171682   5.344911   5.801190   6.595206   6.203473
    25  C    4.264641   5.873261   5.826422   7.434494   7.173705
    26  H    4.801533   6.509050   6.177872   7.942120   7.573112
    27  H    3.368043   5.010818   4.937421   6.771794   6.737420
    28  O    5.270504   6.752698   6.936119   8.488174   8.319238
    29  C    5.855542   7.375631   7.445607   9.322431   9.318179
    30  H    6.730870   8.150669   8.369692  10.148187  10.171462
    31  H    5.316893   6.784672   6.852393   8.892111   9.082993
    32  H    6.332000   7.963051   7.804444   9.815554   9.717591
                   21         22         23         24         25
    21  H    0.000000
    22  C    6.713070   0.000000
    23  H    7.558099   1.089635   0.000000
    24  H    6.750954   1.095408   1.746354   0.000000
    25  C    7.227920   1.530079   2.146739   2.148666   0.000000
    26  H    7.495662   2.169470   2.492864   3.065001   1.102963
    27  H    6.610457   2.175571   3.066764   2.529805   1.103899
    28  O    8.464730   2.375734   2.611276   2.575424   1.412298
    29  C    9.251992   3.675023   3.935701   3.920446   2.356319
    30  H   10.191647   4.401766   4.518621   4.486731   3.276129
    31  H    8.871472   4.057114   4.563731   4.207402   2.658400
    32  H    9.553338   4.045009   4.184861   4.539815   2.659366
                   26         27         28         29         30
    26  H    0.000000
    27  H    1.772304   0.000000
    28  O    2.082436   2.080824   0.000000
    29  C    2.633593   2.645189   1.412992   0.000000
    30  H    3.619805   3.625660   2.026675   1.092311   0.000000
    31  H    3.026207   2.468404   2.088915   1.101291   1.784238
    32  H    2.457271   3.048864   2.088703   1.101009   1.784408
                   31         32
    31  H    0.000000
    32  H    1.783875   0.000000
 Stoichiometry    C9H18N2O3
 Framework group  C1[X(C9H18N2O3)]
 Deg. of freedom    90
 Full point group                 C1      NOp   1
 Largest Abelian subgroup         C1      NOp   1
 Largest concise Abelian subgroup C1      NOp   1
                         Standard orientation:                         
 ---------------------------------------------------------------------
 Center     Atomic      Atomic             Coordinates (Angstroms)
 Number     Number       Type             X           Y           Z
 ---------------------------------------------------------------------
      1          6           0        1.603022    2.892241   -0.026844
      2          6           0        0.399845    1.977974   -0.263315
      3          8           0       -0.544740    2.378786   -0.917042
      4          7           0        0.479796    0.677160    0.238400
      5          6           0       -0.654291   -0.180495    0.623886
      6          6           0       -2.101409    0.067119    0.151104
      7          8           0       -2.625833    1.165017    0.196326
      8          7           0       -2.880567   -1.086368    0.087418
      9          6           0       -2.459926   -2.347380   -0.515195
     10          6           0       -4.325702   -0.879267    0.049471
     11          1           0        1.354599    3.848741   -0.485082
     12          1           0        2.519477    2.510903   -0.488353
     13          1           0        1.802813    3.046383    1.038881
     14          1           0       -0.353374   -1.208426    0.418925
     15          1           0       -0.766906   -0.120436    1.718581
     16          1           0       -1.377589   -2.405765   -0.615998
     17          1           0       -2.794713   -3.193488    0.096315
     18          1           0       -2.891833   -2.463951   -1.519344
     19          1           0       -4.819464   -1.778765    0.430120
     20          1           0       -4.582785   -0.021942    0.669017
     21          1           0       -4.686665   -0.685388   -0.969926
     22          6           0        1.735999    0.158357    0.791547
     23          1           0        2.380435    0.964082    1.141994
     24          1           0        1.523805   -0.464095    1.667586
     25          6           0        2.503531   -0.680379   -0.232446
     26          1           0        2.781353   -0.054995   -1.097452
     27          1           0        1.864693   -1.493999   -0.617803
     28          8           0        3.648823   -1.198376    0.411426
     29          6           0        4.459705   -1.976724   -0.444839
     30          1           0        5.309785   -2.328475    0.144041
     31          1           0        3.916043   -2.848676   -0.841038
     32          1           0        4.835081   -1.389360   -1.297081
 ---------------------------------------------------------------------
 Rotational constants (GHZ):      0.8950934      0.3549555      0.2688144
 Standard basis: 6-31G(d,p) (6D, 7F)
 There are   300 symmetry adapted basis functions of A   symmetry.
 Integral buffers will be    131072 words long.
 Raffenetti 2 integral format.
 Two-electron integral symmetry is turned on.
   300 basis functions,   518 primitive gaussians,   300 cartesian basis functions
    55 alpha electrons       55 beta electrons
       nuclear repulsion energy       950.2623126486 Hartrees.
 NAtoms=   32 NActive=   32 NUniq=   32 SFac= 1.00D+00 NAtFMM=   60 NAOKFM=F Big=F
 One-electron integrals computed using PRISM.
 NBasis=   300 RedAO= T  NBF=   300
 NBsUse=   300 1.00D-06 NBFU=   300
 Initial guess read from the read-write file.
 B after Tr=     0.000000    0.000000    0.000000
         Rot=    1.000000    0.000000    0.000000    0.000000 Ang=   0.00 deg.
 Initial guess orbital symmetries:
       Occupied  (A) (A) (A) (A) (A) (A) (A) (A) (A) (A) (A) (A)
                 (A) (A) (A) (A) (A) (A) (A) (A) (A) (A) (A) (A)
                 (A) (A) (A) (A) (A) (A) (A) (A) (A) (A) (A) (A)
                 (A) (A) (A) (A) (A) (A) (A) (A) (A) (A) (A) (A)
                 (A) (A) (A) (A) (A) (A) (A)
       Virtual   (A) (A) (A) (A) (A) (A) (A) (A) (A) (A) (A) (A)
                 (A) (A) (A) (A) (A) (A) (A) (A) (A) (A) (A) (A)
                 (A) (A) (A) (A) (A) (A) (A) (A) (A) (A) (A) (A)
                 (A) (A) (A) (A) (A) (A) (A) (A) (A) (A) (A) (A)
                 (A) (A) (A) (A) (A) (A) (A) (A) (A) (A) (A) (A)
                 (A) (A) (A) (A) (A) (A) (A) (A) (A) (A) (A) (A)
                 (A) (A) (A) (A) (A) (A) (A) (A) (A) (A) (A) (A)
                 (A) (A) (A) (A) (A) (A) (A) (A) (A) (A) (A) (A)
                 (A) (A) (A) (A) (A) (A) (A) (A) (A) (A) (A) (A)
                 (A) (A) (A) (A) (A) (A) (A) (A) (A) (A) (A) (A)
                 (A) (A) (A) (A) (A) (A) (A) (A) (A) (A) (A) (A)
                 (A) (A) (A) (A) (A) (A) (A) (A) (A) (A) (A) (A)
                 (A) (A) (A) (A) (A) (A) (A) (A) (A) (A) (A) (A)
                 (A) (A) (A) (A) (A) (A) (A) (A) (A) (A) (A) (A)
                 (A) (A) (A) (A) (A) (A) (A) (A) (A) (A) (A) (A)
                 (A) (A) (A) (A) (A) (A) (A) (A) (A) (A) (A) (A)
                 (A) (A) (A) (A) (A) (A) (A) (A) (A) (A) (A) (A)
                 (A) (A) (A) (A) (A) (A) (A) (A) (A) (A) (A) (A)
                 (A) (A) (A) (A) (A) (A) (A) (A) (A) (A) (A) (A)
                 (A) (A) (A) (A) (A) (A) (A) (A) (A) (A) (A) (A)
                 (A) (A) (A) (A) (A)
 Harris functional with IExCor=  402 diagonalized for initial guess.
 ExpMin= 1.61D-01 ExpMax= 5.48D+03 ExpMxC= 8.25D+02 IAcc=1 IRadAn=         1 AccDes= 0.00D+00
 HarFok:  IExCor=  402 AccDes= 0.00D+00 IRadAn=         1 IDoV= 1
 ScaDFX=  1.000000  1.000000  1.000000  1.000000
 FoFCou: FMM=F IPFlag=           0 FMFlag=      100000 FMFlg1=           0
         NFxFlg=           0 DoJE=T BraDBF=F KetDBF=T FulRan=T
         Omega=  0.000000  0.000000  1.000000  0.000000  0.000000 ICntrl=     500 IOpCl=  0
         NMat0=    1 NMatS0=    1 NMatT0=    0 NMatD0=    1 NMtDS0=    0 NMtDT0=    0
         I1Cent=           4 NGrid=           0.
 Petite list used in FoFCou.
