 Entering Gaussian System, Link 0=/data/opt/apps/g09-C01/g09
 Initial command:
 /data/opt/apps/g09-C01/l1.exe /tmp/g09-tuu61186-1307531c21e64fea8x/Gau-1307668.inp -scrdir=/tmp/g09-tuu61186-1307531c21e64fea8x/
 Entering Link 1 = /data/opt/apps/g09-C01/l1.exe PID=   1307672.
  
 Copyright (c) 1988,1990,1992,1993,1995,1998,2003,2009,2011,
            Gaussian, Inc.  All Rights Reserved.
  
 This is part of the Gaussian(R) 09 program.  It is based on
 the Gaussian(R) 03 system (copyright 2003, Gaussian, Inc.),
 the Gaussian(R) 98 system (copyright 1998, Gaussian, Inc.),
 the Gaussian(R) 94 system (copyright 1995, Gaussian, Inc.),
 the Gaussian 92(TM) system (copyright 1992, Gaussian, Inc.),
 the Gaussian 90(TM) system (copyright 1990, Gaussian, Inc.),
 the Gaussian 88(TM) system (copyright 1988, Gaussian, Inc.),
 the Gaussian 86(TM) system (copyright 1986, Carnegie Mellon
 University), and the Gaussian 82(TM) system (copyright 1983,
 Carnegie Mellon University). Gaussian is a federally registered
 trademark of Gaussian, Inc.
  
 This software contains proprietary and confidential information,
 including trade secrets, belonging to Gaussian, Inc.
  
 This software is provided under written license and may be
 used, copied, transmitted, or stored only in accord with that
 written license.
  
 The following legend is applicable only to US Government
 contracts under FAR:
  
                    RESTRICTED RIGHTS LEGEND
  
 Use, reproduction and disclosure by the US Government is
 subject to restrictions as set forth in subparagraphs (a)
 and (c) of the Commercial Computer Software - Restricted
 Rights clause in FAR 52.227-19.
  
 Gaussian, Inc.
 340 Quinnipiac St., Bldg. 40, Wallingford CT 06492
  
  
 ---------------------------------------------------------------
 Warning -- This program may not be used in any manner that
 competes with the business of Gaussian, Inc. or will provide
 assistance to any competitor of Gaussian, Inc.  The licensee
 of this program is prohibited from giving any competitor of
 Gaussian, Inc. access to this program.  By using this program,
 the user acknowledges that Gaussian, Inc. is engaged in the
 business of creating and licensing software in the field of
 computational chemistry and represents and warrants to the
 licensee that it is not a competitor of Gaussian, Inc. and that
 it will not use this program in any manner prohibited above.
 ---------------------------------------------------------------
  

 Cite this work as:
 Gaussian 09, Revision C.01,
 M. J. Frisch, G. W. Trucks, H. B. Schlegel, G. E. Scuseria, 
 M. A. Robb, J. R. Cheeseman, G. Scalmani, V. Barone, B. Mennucci, 
 G. A. Petersson, H. Nakatsuji, M. Caricato, X. Li, H. P. Hratchian, 
 A. F. Izmaylov, J. Bloino, G. Zheng, J. L. Sonnenberg, M. Hada, 
 M. Ehara, K. Toyota, R. Fukuda, J. Hasegawa, M. Ishida, T. Nakajima, 
 Y. Honda, O. Kitao, H. Nakai, T. Vreven, J. A. Montgomery, Jr., 
 J. E. Peralta, F. Ogliaro, M. Bearpark, J. J. Heyd, E. Brothers, 
 K. N. Kudin, V. N. Staroverov, T. Keith, R. Kobayashi, J. Normand, 
 K. Raghavachari, A. Rendell, J. C. Burant, S. S. Iyengar, J. Tomasi, 
 M. Cossi, N. Rega, J. M. Millam, M. Klene, J. E. Knox, J. B. Cross, 
 V. Bakken, C. Adamo, J. Jaramillo, R. Gomperts, R. E. Stratmann, 
 O. Yazyev, A. J. Austin, R. Cammi, C. Pomelli, J. W. Ochterski, 
 R. L. Martin, K. Morokuma, V. G. Zakrzewski, G. A. Voth, 
 P. Salvador, J. J. Dannenberg, S. Dapprich, A. D. Daniels, 
 O. Farkas, J. B. Foresman, J. V. Ortiz, J. Cioslowski, 
 and D. J. Fox, Gaussian, Inc., Wallingford CT, 2010.
 
 ******************************************
 Gaussian 09:  EM64L-G09RevC.01 23-Sep-2011
                24-Apr-2026 
 ******************************************
 %nprocshared=8
 Will use up to    8 processors via shared memory.
 %mem=14GB
 -----------------------------------
 # opt=modredundant b3lyp/6-31g(d,p)
 -----------------------------------
 1/14=-1,18=120,19=15,26=3,38=1/1,3;
 2/9=110,12=2,17=6,18=5,40=1/2;
 3/5=1,6=6,7=101,11=2,16=1,25=1,30=1,71=1,74=-5/1,2,3;
 4//1;
 5/5=2,38=5/2;
 6/7=2,8=2,9=2,10=2,28=1/1;
 7//1,2,3,16;
 1/14=-1,18=20,19=15/3(2);
 2/9=110/2;
 99//99;
 2/9=110/2;
 3/5=1,6=6,7=101,11=2,16=1,25=1,30=1,71=1,74=-5/1,2,3;
 4/5=5,16=3/1;
 5/5=2,38=5/2;
 7//1,2,3,16;
 1/14=-1,18=20,19=15/3(-5);
 2/9=110/2;
 6/7=2,8=2,9=2,10=2,19=2,28=1/1;
 99/9=1/99;
 ---------------
 QM dihedral opt
 ---------------
 Charge =  0 Multiplicity = 1
 Symbolic Z-Matrix:
 C                     1.11289   2.83777  -0.82083 
 C                    -0.01784   2.01686  -0.22026 
 O                    -1.19175   2.33707  -0.40848 
 N                     0.31033   0.92687   0.54912 
 C                    -0.80058   0.19864   1.16438 
 C                    -1.37639  -0.91768   0.27013 
 O                    -0.64155  -1.84791  -0.06661 
 N                    -2.7005   -0.87521  -0.05818 
 C                    -3.59634   0.25428   0.18597 
 C                    -3.28154  -2.01837  -0.75303 
 H                     0.66078   3.57081  -1.48787 
 H                     1.82381   2.22521  -1.3819 
 H                     1.67147   3.36892  -0.04255 
 H                    -0.41251  -0.31701   2.04733 
 H                    -1.54867   0.92006   1.48716 
 H                    -3.0477    1.19479   0.14722 
 H                    -4.34346   0.27675  -0.61263 
 H                    -4.13004   0.15664   1.14095 
 H                    -3.5739   -1.74459  -1.77428 
 H                    -2.54078  -2.81443  -0.79475 
 H                    -4.17371  -2.36741  -0.22014 
 C                     1.68566   0.51695   0.83528 
 H                     2.34442   1.38691   0.79844 
 H                     1.72763   0.138     1.86139 
 C                     2.23891  -0.55312  -0.10915 
 H                     2.14738  -0.21776  -1.15678 
 H                     1.66112  -1.48019  -0.01191 
 O                     3.59894  -0.73242   0.24778 
 C                     4.22325  -1.76619  -0.48435 
 H                     5.25578  -1.83579  -0.13323 
 H                     3.72619  -2.7357   -0.32799 
 H                     4.23009  -1.55547  -1.56558 
 
 The following ModRedundant input section has been read:
 D       2       4       5       6 F                                           
 D       4       5       6       8 S  36 10.000                                

 GradGradGradGradGradGradGradGradGradGradGradGradGradGradGradGradGradGrad
 Berny optimization.
 Initialization pass.
                           ----------------------------
                           !    Initial Parameters    !
                           ! (Angstroms and Degrees)  !
 --------------------------                            --------------------------
 ! Name  Definition              Value          Derivative Info.                !
 --------------------------------------------------------------------------------
 ! R1    R(1,2)                  1.5209         estimate D2E/DX2                !
 ! R2    R(1,11)                 1.0894         estimate D2E/DX2                !
 ! R3    R(1,12)                 1.0934         estimate D2E/DX2                !
 ! R4    R(1,13)                 1.0954         estimate D2E/DX2                !
 ! R5    R(2,3)                  1.2313         estimate D2E/DX2                !
 ! R6    R(2,4)                  1.3739         estimate D2E/DX2                !
 ! R7    R(4,5)                  1.4639         estimate D2E/DX2                !
 ! R8    R(4,22)                 1.4634         estimate D2E/DX2                !
 ! R9    R(5,6)                  1.5419         estimate D2E/DX2                !
 ! R10   R(5,14)                 1.0937         estimate D2E/DX2                !
 ! R11   R(5,15)                 1.0882         estimate D2E/DX2                !
 ! R12   R(6,7)                  1.2324         estimate D2E/DX2                !
 ! R13   R(6,8)                  1.3649         estimate D2E/DX2                !
 ! R14   R(8,9)                  1.4621         estimate D2E/DX2                !
 ! R15   R(8,10)                 1.4585         estimate D2E/DX2                !
 ! R16   R(9,16)                 1.0895         estimate D2E/DX2                !
 ! R17   R(9,17)                 1.0938         estimate D2E/DX2                !
 ! R18   R(9,18)                 1.0983         estimate D2E/DX2                !
 ! R19   R(10,19)                1.097          estimate D2E/DX2                !
 ! R20   R(10,20)                1.0882         estimate D2E/DX2                !
 ! R21   R(10,21)                1.0963         estimate D2E/DX2                !
 ! R22   R(22,23)                1.0919         estimate D2E/DX2                !
 ! R23   R(22,24)                1.0946         estimate D2E/DX2                !
 ! R24   R(22,25)                1.5307         estimate D2E/DX2                !
 ! R25   R(25,26)                1.1038         estimate D2E/DX2                !
 ! R26   R(25,27)                1.0967         estimate D2E/DX2                !
 ! R27   R(25,28)                1.4175         estimate D2E/DX2                !
 ! R28   R(28,29)                1.4123         estimate D2E/DX2                !
 ! R29   R(29,30)                1.0928         estimate D2E/DX2                !
 ! R30   R(29,31)                1.1007         estimate D2E/DX2                !
 ! R31   R(29,32)                1.1016         estimate D2E/DX2                !
 ! A1    A(2,1,11)             107.2441         estimate D2E/DX2                !
 ! A2    A(2,1,12)             112.5603         estimate D2E/DX2                !
 ! A3    A(2,1,13)             111.1179         estimate D2E/DX2                !
 ! A4    A(11,1,12)            109.4282         estimate D2E/DX2                !
 ! A5    A(11,1,13)            108.6876         estimate D2E/DX2                !
 ! A6    A(12,1,13)            107.7405         estimate D2E/DX2                !
 ! A7    A(1,2,3)              120.5374         estimate D2E/DX2                !
 ! A8    A(1,2,4)              118.1474         estimate D2E/DX2                !
 ! A9    A(3,2,4)              121.3084         estimate D2E/DX2                !
 ! A10   A(2,4,5)              116.6633         estimate D2E/DX2                !
 ! A11   A(2,4,22)             123.7944         estimate D2E/DX2                !
 ! A12   A(5,4,22)             119.4509         estimate D2E/DX2                !
 ! A13   A(4,5,6)              113.5659         estimate D2E/DX2                !
 ! A14   A(4,5,14)             107.7335         estimate D2E/DX2                !
 ! A15   A(4,5,15)             108.4543         estimate D2E/DX2                !
 ! A16   A(6,5,14)             105.0337         estimate D2E/DX2                !
 ! A17   A(6,5,15)             113.2823         estimate D2E/DX2                !
 ! A18   A(14,5,15)            108.483          estimate D2E/DX2                !
 ! A19   A(5,6,7)              118.8355         estimate D2E/DX2                !
 ! A20   A(5,6,8)              118.638          estimate D2E/DX2                !
 ! A21   A(7,6,8)              122.428          estimate D2E/DX2                !
 ! A22   A(6,8,9)              125.3288         estimate D2E/DX2                !
 ! A23   A(6,8,10)             118.4694         estimate D2E/DX2                !
 ! A24   A(9,8,10)             116.1634         estimate D2E/DX2                !
 ! A25   A(8,9,16)             110.6322         estimate D2E/DX2                !
 ! A26   A(8,9,17)             108.2069         estimate D2E/DX2                !
 ! A27   A(8,9,18)             111.9768         estimate D2E/DX2                !
 ! A28   A(16,9,17)            107.4724         estimate D2E/DX2                !
 ! A29   A(16,9,18)            110.6307         estimate D2E/DX2                !
 ! A30   A(17,9,18)            107.7418         estimate D2E/DX2                !
 ! A31   A(8,10,19)            110.7369         estimate D2E/DX2                !
 ! A32   A(8,10,20)            108.6902         estimate D2E/DX2                !
 ! A33   A(8,10,21)            110.0099         estimate D2E/DX2                !
 ! A34   A(19,10,20)           109.1658         estimate D2E/DX2                !
 ! A35   A(19,10,21)           108.3673         estimate D2E/DX2                !
 ! A36   A(20,10,21)           109.8596         estimate D2E/DX2                !
 ! A37   A(4,22,23)            109.7096         estimate D2E/DX2                !
 ! A38   A(4,22,24)            108.4401         estimate D2E/DX2                !
 ! A39   A(4,22,25)            114.5103         estimate D2E/DX2                !
 ! A40   A(23,22,24)           106.5187         estimate D2E/DX2                !
 ! A41   A(23,22,25)           108.5487         estimate D2E/DX2                !
 ! A42   A(24,22,25)           108.8135         estimate D2E/DX2                !
 ! A43   A(22,25,26)           110.0734         estimate D2E/DX2                !
 ! A44   A(22,25,27)           110.2317         estimate D2E/DX2                !
 ! A45   A(22,25,28)           106.2514         estimate D2E/DX2                !
 ! A46   A(26,25,27)           107.2951         estimate D2E/DX2                !
 ! A47   A(26,25,28)           110.9154         estimate D2E/DX2                !
 ! A48   A(27,25,28)           112.1009         estimate D2E/DX2                !
 ! A49   A(25,28,29)           112.7184         estimate D2E/DX2                !
 ! A50   A(28,29,30)           107.3215         estimate D2E/DX2                !
 ! A51   A(28,29,31)           111.8078         estimate D2E/DX2                !
 ! A52   A(28,29,32)           111.8115         estimate D2E/DX2                !
 ! A53   A(30,29,31)           108.9626         estimate D2E/DX2                !
 ! A54   A(30,29,32)           108.7637         estimate D2E/DX2                !
 ! A55   A(31,29,32)           108.1032         estimate D2E/DX2                !
 ! D1    D(11,1,2,3)            -7.8302         estimate D2E/DX2                !
 ! D2    D(11,1,2,4)           173.1075         estimate D2E/DX2                !
 ! D3    D(12,1,2,3)          -128.2341         estimate D2E/DX2                !
 ! D4    D(12,1,2,4)            52.7036         estimate D2E/DX2                !
 ! D5    D(13,1,2,3)           110.8241         estimate D2E/DX2                !
 ! D6    D(13,1,2,4)           -68.2382         estimate D2E/DX2                !
 ! D7    D(1,2,4,5)            177.1128         estimate D2E/DX2                !
 ! D8    D(1,2,4,22)             0.6149         estimate D2E/DX2                !
 ! D9    D(3,2,4,5)             -1.9419         estimate D2E/DX2                !
 ! D10   D(3,2,4,22)          -178.4398         estimate D2E/DX2                !
 ! D11   D(2,4,5,6)             88.6699         Frozen                          !
 ! D12   D(2,4,5,14)          -155.4437         estimate D2E/DX2                !
 ! D13   D(2,4,5,15)           -38.2115         estimate D2E/DX2                !
 ! D14   D(22,4,5,6)           -94.6722         estimate D2E/DX2                !
 ! D15   D(22,4,5,14)           21.2142         estimate D2E/DX2                !
 ! D16   D(22,4,5,15)          138.4464         estimate D2E/DX2                !
 ! D17   D(2,4,22,23)           27.4177         estimate D2E/DX2                !
 ! D18   D(2,4,22,24)          143.3825         estimate D2E/DX2                !
 ! D19   D(2,4,22,25)          -94.9065         estimate D2E/DX2                !
 ! D20   D(5,4,22,23)         -148.988          estimate D2E/DX2                !
 ! D21   D(5,4,22,24)          -33.0233         estimate D2E/DX2                !
 ! D22   D(5,4,22,25)           88.6878         estimate D2E/DX2                !
 ! D23   D(4,5,6,7)             61.3755         estimate D2E/DX2                !
 ! D24   D(4,5,6,8)           -122.1441         Scan                            !
 ! D25   D(14,5,6,7)           -56.091          estimate D2E/DX2                !
 ! D26   D(14,5,6,8)           120.3894         estimate D2E/DX2                !
 ! D27   D(15,5,6,7)          -174.3156         estimate D2E/DX2                !
 ! D28   D(15,5,6,8)             2.1648         estimate D2E/DX2                !
 ! D29   D(5,6,8,9)             10.3194         estimate D2E/DX2                !
 ! D30   D(5,6,8,10)          -172.0279         estimate D2E/DX2                !
 ! D31   D(7,6,8,9)           -173.3336         estimate D2E/DX2                !
 ! D32   D(7,6,8,10)             4.3192         estimate D2E/DX2                !
 ! D33   D(6,8,9,16)            30.6483         estimate D2E/DX2                !
 ! D34   D(6,8,9,17)           148.1372         estimate D2E/DX2                !
 ! D35   D(6,8,9,18)           -93.2649         estimate D2E/DX2                !
 ! D36   D(10,8,9,16)         -147.0527         estimate D2E/DX2                !
 ! D37   D(10,8,9,17)          -29.5639         estimate D2E/DX2                !
 ! D38   D(10,8,9,18)           89.0341         estimate D2E/DX2                !
 ! D39   D(6,8,10,19)         -113.0182         estimate D2E/DX2                !
 ! D40   D(6,8,10,20)            6.8936         estimate D2E/DX2                !
 ! D41   D(6,8,10,21)          127.216          estimate D2E/DX2                !
 ! D42   D(9,8,10,19)           64.8483         estimate D2E/DX2                !
 ! D43   D(9,8,10,20)         -175.2399         estimate D2E/DX2                !
 ! D44   D(9,8,10,21)          -54.9176         estimate D2E/DX2                !
 ! D45   D(4,22,25,26)          54.9308         estimate D2E/DX2                !
 ! D46   D(4,22,25,27)         -63.2342         estimate D2E/DX2                !
 ! D47   D(4,22,25,28)         175.0908         estimate D2E/DX2                !
 ! D48   D(23,22,25,26)        -68.0221         estimate D2E/DX2                !
 ! D49   D(23,22,25,27)        173.8129         estimate D2E/DX2                !
 ! D50   D(23,22,25,28)         52.1379         estimate D2E/DX2                !
 ! D51   D(24,22,25,26)        176.4373         estimate D2E/DX2                !
 ! D52   D(24,22,25,27)         58.2723         estimate D2E/DX2                !
 ! D53   D(24,22,25,28)        -63.4027         estimate D2E/DX2                !
 ! D54   D(22,25,28,29)        175.8805         estimate D2E/DX2                !
 ! D55   D(26,25,28,29)        -64.5071         estimate D2E/DX2                !
 ! D56   D(27,25,28,29)         55.4065         estimate D2E/DX2                !
 ! D57   D(25,28,29,30)       -179.327          estimate D2E/DX2                !
 ! D58   D(25,28,29,31)        -59.8932         estimate D2E/DX2                !
 ! D59   D(25,28,29,32)         61.4807         estimate D2E/DX2                !
 --------------------------------------------------------------------------------
 Trust Radius=3.00D-01 FncErr=1.00D-07 GrdErr=1.00D-06
 Number of optimizations in scan=  37
 Number of steps in this run=    155 maximum allowed number of steps=    192.
 GradGradGradGradGradGradGradGradGradGradGradGradGradGradGradGradGradGrad

                          Input orientation:                          
 ---------------------------------------------------------------------
 Center     Atomic      Atomic             Coordinates (Angstroms)
 Number     Number       Type             X           Y           Z
 ---------------------------------------------------------------------
      1          6           0        1.112892    2.837766   -0.820827
      2          6           0       -0.017843    2.016863   -0.220262
      3          8           0       -1.191753    2.337073   -0.408476
      4          7           0        0.310330    0.926871    0.549119
      5          6           0       -0.800576    0.198637    1.164380
      6          6           0       -1.376388   -0.917681    0.270132
      7          8           0       -0.641553   -1.847911   -0.066611
      8          7           0       -2.700497   -0.875209   -0.058175
      9          6           0       -3.596339    0.254276    0.185971
     10          6           0       -3.281537   -2.018375   -0.753028
     11          1           0        0.660784    3.570807   -1.487873
     12          1           0        1.823805    2.225215   -1.381899
     13          1           0        1.671470    3.368917   -0.042550
     14          1           0       -0.412506   -0.317013    2.047331
     15          1           0       -1.548665    0.920063    1.487162
     16          1           0       -3.047701    1.194787    0.147220
     17          1           0       -4.343464    0.276747   -0.612627
     18          1           0       -4.130036    0.156644    1.140946
     19          1           0       -3.573898   -1.744591   -1.774284
     20          1           0       -2.540779   -2.814431   -0.794748
     21          1           0       -4.173710   -2.367414   -0.220136
     22          6           0        1.685662    0.516953    0.835283
     23          1           0        2.344421    1.386909    0.798438
     24          1           0        1.727632    0.138004    1.861389
     25          6           0        2.238910   -0.553122   -0.109145
     26          1           0        2.147375   -0.217762   -1.156781
     27          1           0        1.661122   -1.480190   -0.011905
     28          8           0        3.598943   -0.732423    0.247783
     29          6           0        4.223247   -1.766194   -0.484347
     30          1           0        5.255782   -1.835791   -0.133233
     31          1           0        3.726185   -2.735700   -0.327990
     32          1           0        4.230089   -1.555473   -1.565579
 ---------------------------------------------------------------------
                    Distance matrix (angstroms):
                    1          2          3          4          5
     1  C    0.000000
     2  C    1.520895   0.000000
     3  O    2.394184   1.231269   0.000000
     4  N    2.484427   1.373946   2.271984   0.000000
     5  C    3.816727   2.415750   2.683245   1.463893   0.000000
     6  C    4.635740   3.270731   3.329868   2.515000   1.541884
     7  O    5.059890   3.917793   4.234818   2.997436   2.393530
     8  N    5.376779   3.948036   3.566199   3.561092   2.501497
     9  C    5.464881   4.009660   3.236270   3.980744   2.962545
    10  C    6.549634   5.217153   4.843123   4.824062   3.840151
    11  H    1.089358   2.117100   2.473680   3.355973   4.532279
    12  H    1.093352   2.187345   3.170750   2.775812   4.180662
    13  H    1.095375   2.171039   3.065396   2.857685   4.197424
    14  H    4.528333   3.277913   3.698971   2.077108   1.093662
    15  H    4.011020   2.541984   2.393480   2.082266   1.088247
    16  H    4.576792   3.160837   2.249035   3.392591   2.660169
    17  H    6.031085   4.678990   3.770929   4.840466   3.964330
    18  H    6.206872   4.714174   3.973473   4.545367   3.329807
    19  H    6.623675   5.404540   4.919352   5.255677   4.483659
    20  H    6.730329   5.480569   5.339201   4.892049   3.993128
    21  H    7.443312   6.040953   5.573126   5.616999   4.458647
    22  C    2.908082   2.503165   3.624816   1.463373   2.528045
    23  H    2.498733   2.648562   3.855383   2.100315   3.381850
    24  H    3.854984   3.303039   4.302441   2.086410   2.623230
    25  C    3.643148   3.422003   4.495806   2.518553   3.380160
    26  H    3.243343   3.249429   4.270470   2.755905   3.775128
    27  H    4.427150   3.884806   4.782014   2.816617   3.203446
    28  O    4.479802   4.567141   5.727412   3.695813   4.589422
    29  C    5.566325   5.689297   6.794467   4.861231   5.640714
    30  H    6.283189   6.531588   7.685002   5.705734   6.519369
    31  H    6.175412   6.051133   7.065806   5.084468   5.597237
    32  H    5.438026   5.711076   6.774007   5.098871   5.986415
                    6          7          8          9         10
     6  C    0.000000
     7  O    1.232358   0.000000
     8  N    1.364864   2.277163   0.000000
     9  C    2.511722   3.635072   1.462148   0.000000
    10  C    2.426515   2.733083   1.458512   2.479065   0.000000
    11  H    5.233276   5.751397   5.754069   5.650153   6.879015
    12  H    4.779983   4.939466   5.642179   5.976686   6.668437
    13  H    5.268978   5.706658   6.093188   6.123971   7.352549
    14  H    2.109101   2.620088   3.159057   3.732000   4.355225
    15  H    2.210915   3.301324   2.633968   2.515818   4.081141
    16  H    2.696464   3.885007   2.108938   1.089526   3.345076
    17  H    3.318051   4.303074   2.081769   1.093828   2.532782
    18  H    3.081407   4.200708   2.132180   1.098336   3.006293
    19  H    3.113273   3.394918   2.112743   2.799745   1.096994
    20  H    2.467273   2.251978   2.080536   3.390130   1.088195
    21  H    3.188589   3.573456   2.103156   2.715058   1.096255
    22  C    3.428370   3.438303   4.687726   5.328240   5.798593
    23  H    4.408476   4.486470   5.594833   6.078701   6.756805
    24  H    3.644381   3.643361   4.931496   5.582581   6.047886
    25  C    3.653373   3.158379   4.950160   5.898230   5.747772
    26  H    3.865601   3.409395   5.014084   5.917436   5.733961
    27  H    3.102004   2.332493   4.403619   5.539713   5.026807
    28  O    4.978829   4.396017   6.308482   7.262884   7.070806
    29  C    5.713591   4.883386   6.993834   8.104169   7.513825
    30  H    6.707556   5.897724   8.014407   9.101116   8.561735
    31  H    5.449697   4.464709   6.696004   7.926126   7.057151
    32  H    5.933734   5.105421   7.125170   8.221684   7.569613
                   11         12         13         14         15
    11  H    0.000000
    12  H    1.781703   0.000000
    13  H    1.775163   1.767800   0.000000
    14  H    5.363279   4.819090   4.721932   0.000000
    15  H    4.556198   4.616112   4.325063   1.770594   0.000000
    16  H    4.698070   5.208796   5.199368   3.583324   2.029292
    17  H    6.054699   6.513334   6.787189   4.783342   3.554416
    18  H    6.443536   6.789106   6.736233   3.855634   2.714065
    19  H    6.802060   6.711820   7.527334   5.161116   4.673219
    20  H    7.176468   6.692710   7.519484   4.340974   4.487521
    21  H    7.761569   7.642782   8.191652   4.846876   4.540180
    22  C    3.971581   2.802345   2.984039   2.562590   3.323901
    23  H    3.582075   2.393255   2.255766   3.473288   3.981005
    24  H    4.913233   3.858059   3.750592   2.195861   3.389068
    25  C    4.625815   3.084051   3.963434   3.425805   4.366256
    26  H    4.083238   2.474573   3.785797   4.102338   4.684634
    27  H    5.356466   3.953906   4.849215   3.145372   4.279153
    28  O    5.492091   3.815049   4.540973   4.416182   5.546588
    29  C    6.494751   4.742812   5.751184   5.477200   6.664667
    30  H    7.223597   5.461630   6.320166   6.260274   7.518039
    31  H    7.107323   5.416683   6.447455   5.349856   6.669589
    32  H    6.246977   4.485258   5.754630   6.011704   6.988670
                   16         17         18         19         20
    16  H    0.000000
    17  H    1.760445   0.000000
    18  H    1.799078   1.770592   0.000000
    19  H    3.550916   2.455094   3.524564   0.000000
    20  H    4.149470   3.583047   3.885864   1.780838   0.000000
    21  H    3.753948   2.678517   2.867982   1.778499   1.787867
    22  C    4.830902   6.205200   5.834860   6.291851   5.622982
    23  H    5.434701   6.924693   6.599201   7.172983   6.637370
    24  H    5.182564   6.557302   5.901835   6.698396   5.830203
    25  C    5.573972   6.653557   6.529163   6.162875   5.331885
    26  H    5.539362   6.532353   6.695194   5.953611   5.371457
    27  H    5.417918   6.285121   6.127463   5.530038   4.477613
    28  O    6.921136   8.052364   7.831047   7.520830   6.566416
    29  C    7.876101   8.807872   8.724461   7.903156   6.851802
    30  H    8.843692   9.840638   9.679200   8.981348   7.885538
    31  H    7.846023   8.618300   8.499626   7.507681   6.284815
    32  H    7.966419   8.818784   8.952559   7.809068   6.929921
                   21         22         23         24         25
    21  H    0.000000
    22  C    6.615567   0.000000
    23  H    7.590683   1.091854   0.000000
    24  H    6.740601   1.094649   1.752158   0.000000
    25  C    6.665258   1.530715   2.144425   2.149899   0.000000
    26  H    6.741990   2.172856   2.537061   3.067915   1.103805
    27  H    5.905573   2.169541   3.056765   2.476329   1.096699
    28  O    7.956524   2.359394   2.523611   2.619766   1.417475
    29  C    8.422598   3.659716   3.888134   3.918742   2.355825
    30  H    9.444866   4.383969   4.441827   4.508018   3.278313
    31  H    7.909210   4.012068   4.491549   4.128652   2.650194
    32  H    8.549462   4.066103   4.219234   4.568836   2.662837
                   26         27         28         29         30
    26  H    0.000000
    27  H    1.772261   0.000000
    28  O    2.084401   2.093261   0.000000
    29  C    2.675641   2.620970   1.412251   0.000000
    30  H    3.650735   3.614243   2.026749   1.092819   0.000000
    31  H    3.085376   2.437355   2.088259   1.100663   1.785338
    32  H    2.508841   3.003192   2.089028   1.101596   1.783883
                   31         32
    31  H    0.000000
    32  H    1.782830   0.000000
 Stoichiometry    C9H18N2O3
 Framework group  C1[X(C9H18N2O3)]
 Deg. of freedom    90
 Full point group                 C1      NOp   1
 Largest Abelian subgroup         C1      NOp   1
 Largest concise Abelian subgroup C1      NOp   1
                         Standard orientation:                         
 ---------------------------------------------------------------------
 Center     Atomic      Atomic             Coordinates (Angstroms)
 Number     Number       Type             X           Y           Z
 ---------------------------------------------------------------------
      1          6           0        1.112892    2.837766   -0.820827
      2          6           0       -0.017843    2.016863   -0.220262
      3          8           0       -1.191753    2.337073   -0.408476
      4          7           0        0.310330    0.926871    0.549119
      5          6           0       -0.800576    0.198637    1.164380
      6          6           0       -1.376388   -0.917681    0.270132
      7          8           0       -0.641553   -1.847911   -0.066611
      8          7           0       -2.700497   -0.875209   -0.058175
      9          6           0       -3.596339    0.254276    0.185971
     10          6           0       -3.281537   -2.018375   -0.753028
     11          1           0        0.660784    3.570807   -1.487873
     12          1           0        1.823805    2.225215   -1.381899
     13          1           0        1.671470    3.368917   -0.042550
     14          1           0       -0.412506   -0.317013    2.047331
     15          1           0       -1.548665    0.920063    1.487162
     16          1           0       -3.047701    1.194787    0.147220
     17          1           0       -4.343464    0.276747   -0.612627
     18          1           0       -4.130036    0.156644    1.140946
     19          1           0       -3.573898   -1.744591   -1.774284
     20          1           0       -2.540779   -2.814431   -0.794748
     21          1           0       -4.173710   -2.367414   -0.220136
     22          6           0        1.685662    0.516953    0.835283
     23          1           0        2.344421    1.386909    0.798438
     24          1           0        1.727632    0.138004    1.861389
     25          6           0        2.238910   -0.553122   -0.109145
     26          1           0        2.147375   -0.217762   -1.156781
     27          1           0        1.661122   -1.480190   -0.011905
     28          8           0        3.598943   -0.732423    0.247783
     29          6           0        4.223247   -1.766194   -0.484347
     30          1           0        5.255782   -1.835791   -0.133233
     31          1           0        3.726185   -2.735700   -0.327990
     32          1           0        4.230089   -1.555473   -1.565579
 ---------------------------------------------------------------------
 Rotational constants (GHZ):      0.8930244      0.4135529      0.3091207
 Standard basis: 6-31G(d,p) (6D, 7F)
 There are   300 symmetry adapted basis functions of A   symmetry.
 Integral buffers will be    131072 words long.
 Raffenetti 2 integral format.
 Two-electron integral symmetry is turned on.
   300 basis functions,   518 primitive gaussians,   300 cartesian basis functions
    55 alpha electrons       55 beta electrons
       nuclear repulsion energy       973.1416533734 Hartrees.
 NAtoms=   32 NActive=   32 NUniq=   32 SFac= 1.00D+00 NAtFMM=   60 NAOKFM=F Big=F
 One-electron integrals computed using PRISM.
 NBasis=   300 RedAO= T  NBF=   300
 NBsUse=   300 1.00D-06 NBFU=   300
 Harris functional with IExCor=  402 diagonalized for initial guess.
 ExpMin= 1.61D-01 ExpMax= 5.48D+03 ExpMxC= 8.25D+02 IAcc=1 IRadAn=         1 AccDes= 0.00D+00
 HarFok:  IExCor=  402 AccDes= 0.00D+00 IRadAn=         1 IDoV= 1
 ScaDFX=  1.000000  1.000000  1.000000  1.000000
 FoFCou: FMM=F IPFlag=           0 FMFlag=      100000 FMFlg1=           0
         NFxFlg=           0 DoJE=T BraDBF=F KetDBF=T FulRan=T
         Omega=  0.000000  0.000000  1.000000  0.000000  0.000000 ICntrl=     500 IOpCl=  0
         NMat0=    1 NMatS0=    1 NMatT0=    0 NMatD0=    1 NMtDS0=    0 NMtDT0=    0
         I1Cent=           4 NGrid=           0.
 Petite list used in FoFCou.
 Initial guess orbital symmetries:
       Occupied  (A) (A) (A) (A) (A) (A) (A) (A) (A) (A) (A) (A)
                 (A) (A) (A) (A) (A) (A) (A) (A) (A) (A) (A) (A)
                 (A) (A) (A) (A) (A) (A) (A) (A) (A) (A) (A) (A)
                 (A) (A) (A) (A) (A) (A) (A) (A) (A) (A) (A) (A)
                 (A) (A) (A) (A) (A) (A) (A)
       Virtual   (A) (A) (A) (A) (A) (A) (A) (A) (A) (A) (A) (A)
                 (A) (A) (A) (A) (A) (A) (A) (A) (A) (A) (A) (A)
                 (A) (A) (A) (A) (A) (A) (A) (A) (A) (A) (A) (A)
                 (A) (A) (A) (A) (A) (A) (A) (A) (A) (A) (A) (A)
                 (A) (A) (A) (A) (A) (A) (A) (A) (A) (A) (A) (A)
                 (A) (A) (A) (A) (A) (A) (A) (A) (A) (A) (A) (A)
                 (A) (A) (A) (A) (A) (A) (A) (A) (A) (A) (A) (A)
                 (A) (A) (A) (A) (A) (A) (A) (A) (A) (A) (A) (A)
                 (A) (A) (A) (A) (A) (A) (A) (A) (A) (A) (A) (A)
                 (A) (A) (A) (A) (A) (A) (A) (A) (A) (A) (A) (A)
                 (A) (A) (A) (A) (A) (A) (A) (A) (A) (A) (A) (A)
                 (A) (A) (A) (A) (A) (A) (A) (A) (A) (A) (A) (A)
                 (A) (A) (A) (A) (A) (A) (A) (A) (A) (A) (A) (A)
                 (A) (A) (A) (A) (A) (A) (A) (A) (A) (A) (A) (A)
                 (A) (A) (A) (A) (A) (A) (A) (A) (A) (A) (A) (A)
                 (A) (A) (A) (A) (A) (A) (A) (A) (A) (A) (A) (A)
                 (A) (A) (A) (A) (A) (A) (A) (A) (A) (A) (A) (A)
                 (A) (A) (A) (A) (A) (A) (A) (A) (A) (A) (A) (A)
                 (A) (A) (A) (A) (A) (A) (A) (A) (A) (A) (A) (A)
                 (A) (A) (A) (A) (A) (A) (A) (A) (A) (A) (A) (A)
                 (A) (A) (A) (A) (A)
 The electronic state of the initial guess is 1-A.
 Requested convergence on RMS density matrix=1.00D-08 within 128 cycles.
 Requested convergence on MAX density matrix=1.00D-06.
 Requested convergence on             energy=1.00D-06.
 No special actions if energy rises.
 Keep R1 ints in memory in canonical form, NReq=1033484644.
 Integral accuracy reduced to 1.0D-05 until final iterations.
 Initial convergence to 1.0D-05 achieved.  Increase integral accuracy.
 SCF Done:  E(RB3LYP) =  -688.999155166     A.U. after   14 cycles
             Convg  =    0.7477D-08             -V/T =  2.0094

 **********************************************************************

            Population analysis using the SCF density.

 **********************************************************************

 Orbital symmetries:
       Occupied  (A) (A) (A) (A) (A) (A) (A) (A) (A) (A) (A) (A)
                 (A) (A) (A) (A) (A) (A) (A) (A) (A) (A) (A) (A)
                 (A) (A) (A) (A) (A) (A) (A) (A) (A) (A) (A) (A)
                 (A) (A) (A) (A) (A) (A) (A) (A) (A) (A) (A) (A)
                 (A) (A) (A) (A) (A) (A) (A)
       Virtual   (A) (A) (A) (A) (A) (A) (A) (A) (A) (A) (A) (A)
                 (A) (A) (A) (A) (A) (A) (A) (A) (A) (A) (A) (A)
                 (A) (A) (A) (A) (A) (A) (A) (A) (A) (A) (A) (A)
                 (A) (A) (A) (A) (A) (A) (A) (A) (A) (A) (A) (A)
                 (A) (A) (A) (A) (A) (A) (A) (A) (A) (A) (A) (A)
                 (A) (A) (A) (A) (A) (A) (A) (A) (A) (A) (A) (A)
                 (A) (A) (A) (A) (A) (A) (A) (A) (A) (A) (A) (A)
                 (A) (A) (A) (A) (A) (A) (A) (A) (A) (A) (A) (A)
                 (A) (A) (A) (A) (A) (A) (A) (A) (A) (A) (A) (A)
                 (A) (A) (A) (A) (A) (A) (A) (A) (A) (A) (A) (A)
                 (A) (A) (A) (A) (A) (A) (A) (A) (A) (A) (A) (A)
                 (A) (A) (A) (A) (A) (A) (A) (A) (A) (A) (A) (A)
                 (A) (A) (A) (A) (A) (A) (A) (A) (A) (A) (A) (A)
                 (A) (A) (A) (A) (A) (A) (A) (A) (A) (A) (A) (A)
                 (A) (A) (A) (A) (A) (A) (A) (A) (A) (A) (A) (A)
                 (A) (A) (A) (A) (A) (A) (A) (A) (A) (A) (A) (A)
                 (A) (A) (A) (A) (A) (A) (A) (A) (A) (A) (A) (A)
                 (A) (A) (A) (A) (A) (A) (A) (A) (A) (A) (A) (A)
                 (A) (A) (A) (A) (A) (A) (A) (A) (A) (A) (A) (A)
                 (A) (A) (A) (A) (A) (A) (A) (A) (A) (A) (A) (A)
                 (A) (A) (A) (A) (A)
 The electronic state is 1-A.
 Alpha  occ. eigenvalues --  -19.14499 -19.11303 -19.10610 -14.36910 -14.36562
 Alpha  occ. eigenvalues --  -10.28805 -10.28198 -10.22789 -10.22431 -10.22393
 Alpha  occ. eigenvalues --  -10.22226 -10.21281 -10.21071 -10.19144  -1.03499
 Alpha  occ. eigenvalues --   -1.02745  -1.02468  -0.93321  -0.92746  -0.77007
 Alpha  occ. eigenvalues --   -0.75261  -0.72371  -0.70960  -0.67986  -0.67084
 Alpha  occ. eigenvalues --   -0.61600  -0.56034  -0.52989  -0.51519  -0.49610
 Alpha  occ. eigenvalues --   -0.49032  -0.47542  -0.46873  -0.46630  -0.45759
 Alpha  occ. eigenvalues --   -0.44647  -0.43601  -0.41962  -0.41075  -0.40693
 Alpha  occ. eigenvalues --   -0.40213  -0.39971  -0.39564  -0.38581  -0.37448
 Alpha  occ. eigenvalues --   -0.37146  -0.35756  -0.35407  -0.34985  -0.31715
 Alpha  occ. eigenvalues --   -0.26078  -0.25172  -0.24902  -0.23704  -0.23247
 Alpha virt. eigenvalues --    0.01844   0.02539   0.08703   0.09560   0.09970
 Alpha virt. eigenvalues --    0.11036   0.13279   0.13636   0.14111   0.14550
 Alpha virt. eigenvalues --    0.14963   0.15592   0.16694   0.16890   0.17158
 Alpha virt. eigenvalues --    0.17413   0.17705   0.18154   0.18921   0.20300
 Alpha virt. eigenvalues --    0.21257   0.21617   0.22130   0.22481   0.22852
 Alpha virt. eigenvalues --    0.23262   0.26510   0.28347   0.28750   0.33972
 Alpha virt. eigenvalues --    0.34471   0.38504   0.41464   0.47281   0.48305
 Alpha virt. eigenvalues --    0.50564   0.50927   0.51330   0.52188   0.53088
 Alpha virt. eigenvalues --    0.54221   0.54967   0.56627   0.56910   0.57863
 Alpha virt. eigenvalues --    0.60288   0.61064   0.62206   0.63213   0.64217
 Alpha virt. eigenvalues --    0.65952   0.66848   0.69282   0.69645   0.72256
 Alpha virt. eigenvalues --    0.72658   0.73043   0.75322   0.75631   0.76935
 Alpha virt. eigenvalues --    0.79168   0.80493   0.81416   0.81668   0.82734
 Alpha virt. eigenvalues --    0.83664   0.84461   0.84776   0.85302   0.85785
 Alpha virt. eigenvalues --    0.86768   0.86985   0.88619   0.89964   0.91220
 Alpha virt. eigenvalues --    0.91777   0.92880   0.93761   0.94417   0.95994
 Alpha virt. eigenvalues --    0.96679   0.98186   0.98865   1.00289   1.02886
 Alpha virt. eigenvalues --    1.03672   1.04959   1.05856   1.08833   1.11083
 Alpha virt. eigenvalues --    1.12506   1.17165   1.18937   1.20701   1.24469
 Alpha virt. eigenvalues --    1.25671   1.27990   1.29305   1.31941   1.33980
 Alpha virt. eigenvalues --    1.35186   1.37143   1.38109   1.39233   1.39715
 Alpha virt. eigenvalues --    1.42095   1.45761   1.47721   1.50882   1.52257
 Alpha virt. eigenvalues --    1.54621   1.58950   1.61541   1.64087   1.65092
 Alpha virt. eigenvalues --    1.67300   1.70204   1.71734   1.72349   1.74374
 Alpha virt. eigenvalues --    1.76866   1.78646   1.79718   1.82210   1.83112
 Alpha virt. eigenvalues --    1.83677   1.85151   1.87292   1.87612   1.88858
 Alpha virt. eigenvalues --    1.89071   1.90125   1.91944   1.92754   1.95137
 Alpha virt. eigenvalues --    1.96106   1.96238   1.98449   1.98938   2.00949
 Alpha virt. eigenvalues --    2.01330   2.02724   2.03321   2.03492   2.03663
 Alpha virt. eigenvalues --    2.04155   2.04663   2.05536   2.05939   2.07218
 Alpha virt. eigenvalues --    2.08880   2.09264   2.10712   2.11768   2.12373
 Alpha virt. eigenvalues --    2.13512   2.15514   2.17058   2.20144   2.21735
 Alpha virt. eigenvalues --    2.24541   2.26171   2.27653   2.29348   2.30526
 Alpha virt. eigenvalues --    2.31547   2.33042   2.34691   2.36455   2.37050
 Alpha virt. eigenvalues --    2.38821   2.44712   2.45966   2.47137   2.50395
 Alpha virt. eigenvalues --    2.51280   2.53995   2.55297   2.57121   2.57969
 Alpha virt. eigenvalues --    2.58765   2.59750   2.61551   2.64059   2.65160
 Alpha virt. eigenvalues --    2.65695   2.66069   2.68439   2.68841   2.70388
 Alpha virt. eigenvalues --    2.71391   2.72157   2.74712   2.75246   2.78991
 Alpha virt. eigenvalues --    2.79745   2.81598   2.84139   2.85068   2.85822
 Alpha virt. eigenvalues --    2.87003   2.88426   2.89457   2.90387   2.91294
 Alpha virt. eigenvalues --    2.98313   2.99951   3.00817   3.05332   3.08281
 Alpha virt. eigenvalues --    3.12639   3.13769   3.15313   3.18111   3.18882
 Alpha virt. eigenvalues --    3.23653   3.26269   3.28312   3.33831   3.37963
 Alpha virt. eigenvalues --    3.39080   3.40960   3.42359   3.43678   3.43946
 Alpha virt. eigenvalues --    3.44382   3.44525   3.46422   3.48212   3.49777
 Alpha virt. eigenvalues --    3.56517   3.96052   4.02282   4.08072   4.09271
 Alpha virt. eigenvalues --    4.24472   4.33891   4.36933   4.40427   4.45885
 Alpha virt. eigenvalues --    4.50248   4.53604   4.62729   4.69899   4.78902
          Condensed to atoms (all electrons):
              1          2          3          4          5          6
     1  C    5.160655   0.344084  -0.079556  -0.122213   0.007270  -0.000143
     2  C    0.344084   4.376752   0.573930   0.262927  -0.027773  -0.002071
     3  O   -0.079556   0.573930   8.083280  -0.102143   0.004083   0.002105
     4  N   -0.122213   0.262927  -0.102143   7.083973   0.279748  -0.051556
     5  C    0.007270  -0.027773   0.004083   0.279748   5.023917   0.328358
     6  C   -0.000143  -0.002071   0.002105  -0.051556   0.328358   4.415333
     7  O   -0.000008   0.000104  -0.000005   0.000566  -0.083288   0.550661
     8  N    0.000004   0.000815  -0.000599   0.000551  -0.098642   0.287068
     9  C   -0.000064  -0.000196  -0.013181   0.000686  -0.000224  -0.023202
    10  C    0.000000  -0.000029  -0.000008  -0.000101   0.005651  -0.030492
    11  H    0.368106  -0.023495   0.005103   0.004619  -0.000155   0.000005
    12  H    0.360256  -0.019784   0.001846   0.001643  -0.000168   0.000009
    13  H    0.363779  -0.020978   0.000913   0.001650  -0.000202  -0.000001
    14  H   -0.000123   0.005747   0.000828  -0.036963   0.369406  -0.036874
    15  H    0.000278  -0.006400   0.008508  -0.038407   0.354643  -0.031190
    16  H    0.000307  -0.000684   0.030137  -0.001304  -0.002172  -0.003353
    17  H    0.000000  -0.000003   0.000027   0.000010   0.000047   0.001598
    18  H    0.000000   0.000027   0.000197  -0.000068  -0.000739  -0.001099
    19  H    0.000000  -0.000001   0.000002   0.000012  -0.000176   0.000432
    20  H    0.000000  -0.000002   0.000001  -0.000013   0.001020  -0.003785
    21  H    0.000000   0.000000   0.000000  -0.000002  -0.000133   0.002202
    22  C    0.000733  -0.027503   0.002346   0.254270  -0.035460  -0.000196
    23  H    0.007105  -0.009230   0.000115  -0.033189   0.003336  -0.000057
    24  H   -0.000344   0.003156  -0.000086  -0.032727  -0.007916  -0.000617
    25  C   -0.001529  -0.001054   0.000002  -0.053139   0.000411   0.001701
    26  H   -0.001246   0.002311  -0.000063   0.003838  -0.000432   0.000109
    27  H    0.000086  -0.000107   0.000000   0.001106  -0.000143   0.000098
    28  O   -0.000013   0.000033   0.000000   0.002025  -0.000044  -0.000002
    29  C    0.000002  -0.000003   0.000000  -0.000130   0.000000   0.000002
    30  H    0.000000   0.000000   0.000000   0.000001   0.000000   0.000000
    31  H    0.000000   0.000000   0.000000   0.000006   0.000000   0.000001
    32  H   -0.000002   0.000000   0.000000   0.000013   0.000000   0.000000
              7          8          9         10         11         12
     1  C   -0.000008   0.000004  -0.000064   0.000000   0.368106   0.360256
     2  C    0.000104   0.000815  -0.000196  -0.000029  -0.023495  -0.019784
     3  O   -0.000005  -0.000599  -0.013181  -0.000008   0.005103   0.001846
     4  N    0.000566   0.000551   0.000686  -0.000101   0.004619   0.001643
     5  C   -0.083288  -0.098642  -0.000224   0.005651  -0.000155  -0.000168
     6  C    0.550661   0.287068  -0.023202  -0.030492   0.000005   0.000009
     7  O    8.121924  -0.092569   0.002625  -0.011533   0.000000   0.000000
     8  N   -0.092569   6.999061   0.279265   0.289980   0.000000   0.000000
     9  C    0.002625   0.279265   4.867015  -0.047849   0.000000   0.000001
    10  C   -0.011533   0.289980  -0.047849   4.822325   0.000000   0.000000
    11  H    0.000000   0.000000   0.000000   0.000000   0.546285  -0.022699
    12  H    0.000000   0.000000   0.000001   0.000000  -0.022699   0.572945
    13  H    0.000000   0.000000   0.000001   0.000000  -0.021631  -0.028701
    14  H   -0.000346   0.002334  -0.000063  -0.000199   0.000002  -0.000009
    15  H    0.003575   0.002131   0.001445  -0.000203  -0.000017  -0.000004
    16  H    0.000025  -0.030238   0.370957   0.003357  -0.000004  -0.000006
    17  H   -0.000067  -0.036684   0.385674  -0.004918   0.000000   0.000000
    18  H   -0.000021  -0.046184   0.376995   0.000867   0.000000   0.000000
    19  H    0.000631  -0.041863  -0.003307   0.387103   0.000000   0.000000
    20  H    0.023057  -0.035813   0.004540   0.384178   0.000000   0.000000
    21  H    0.000760  -0.046232  -0.000280   0.385320   0.000000   0.000000
    22  C    0.001145  -0.000033  -0.000003   0.000001   0.000333  -0.000775
    23  H    0.000006   0.000003   0.000000   0.000000   0.000035  -0.002565
    24  H    0.000099  -0.000002   0.000000   0.000000  -0.000010   0.000201
    25  C   -0.007674  -0.000047   0.000001   0.000002   0.000013   0.000239
    26  H    0.000492  -0.000002   0.000000   0.000000  -0.000034   0.003948
    27  H    0.019928   0.000229  -0.000004  -0.000003   0.000000  -0.000085
    28  O    0.000067   0.000000   0.000000   0.000000   0.000000  -0.000056
    29  C    0.000010   0.000000   0.000000   0.000000   0.000000  -0.000006
    30  H    0.000000   0.000000   0.000000   0.000000   0.000000   0.000000
    31  H   -0.000030   0.000000   0.000000   0.000000   0.000000   0.000000
    32  H    0.000001   0.000000   0.000000   0.000000   0.000000   0.000006
             13         14         15         16         17         18
     1  C    0.363779  -0.000123   0.000278   0.000307   0.000000   0.000000
     2  C   -0.020978   0.005747  -0.006400  -0.000684  -0.000003   0.000027
     3  O    0.000913   0.000828   0.008508   0.030137   0.000027   0.000197
     4  N    0.001650  -0.036963  -0.038407  -0.001304   0.000010  -0.000068
     5  C   -0.000202   0.369406   0.354643  -0.002172   0.000047  -0.000739
     6  C   -0.000001  -0.036874  -0.031190  -0.003353   0.001598  -0.001099
     7  O    0.000000  -0.000346   0.003575   0.000025  -0.000067  -0.000021
     8  N    0.000000   0.002334   0.002131  -0.030238  -0.036684  -0.046184
     9  C    0.000001  -0.000063   0.001445   0.370957   0.385674   0.376995
    10  C    0.000000  -0.000199  -0.000203   0.003357  -0.004918   0.000867
    11  H   -0.021631   0.000002  -0.000017  -0.000004   0.000000   0.000000
    12  H   -0.028701  -0.000009  -0.000004  -0.000006   0.000000   0.000000
    13  H    0.569705   0.000002  -0.000005  -0.000006   0.000000   0.000000
    14  H    0.000002   0.591596  -0.023989   0.000120  -0.000018   0.000214
    15  H   -0.000005  -0.023989   0.600746  -0.001424   0.000167   0.000560
    16  H   -0.000006   0.000120  -0.001424   0.507214  -0.020197  -0.030332
    17  H    0.000000  -0.000018   0.000167  -0.020197   0.597795  -0.042323
    18  H    0.000000   0.000214   0.000560  -0.030332  -0.042323   0.629981
    19  H    0.000000  -0.000004   0.000000   0.000250   0.005994  -0.000793
    20  H    0.000000  -0.000024  -0.000056  -0.000204   0.000070  -0.000122
    21  H    0.000000   0.000025  -0.000020  -0.000078  -0.002403   0.003421
    22  C   -0.002772  -0.005207   0.002606  -0.000020   0.000000   0.000001
    23  H    0.002108   0.000425  -0.000125   0.000000   0.000000   0.000000
    24  H    0.000170   0.006910   0.000671  -0.000001   0.000000   0.000000
    25  C    0.000083  -0.001500  -0.000145   0.000001   0.000000   0.000000
    26  H    0.000090   0.000031   0.000007   0.000000   0.000000   0.000000
    27  H   -0.000006   0.000662   0.000035  -0.000001   0.000000   0.000000
    28  O   -0.000009   0.000004   0.000001   0.000000   0.000000   0.000000
    29  C    0.000000  -0.000001   0.000000   0.000000   0.000000   0.000000
    30  H    0.000000   0.000000   0.000000   0.000000   0.000000   0.000000
    31  H    0.000000   0.000000   0.000000   0.000000   0.000000   0.000000
    32  H    0.000000   0.000000   0.000000   0.000000   0.000000   0.000000
             19         20         21         22         23         24
     1  C    0.000000   0.000000   0.000000   0.000733   0.007105  -0.000344
     2  C   -0.000001  -0.000002   0.000000  -0.027503  -0.009230   0.003156
     3  O    0.000002   0.000001   0.000000   0.002346   0.000115  -0.000086
     4  N    0.000012  -0.000013  -0.000002   0.254270  -0.033189  -0.032727
     5  C   -0.000176   0.001020  -0.000133  -0.035460   0.003336  -0.007916
     6  C    0.000432  -0.003785   0.002202  -0.000196  -0.000057  -0.000617
     7  O    0.000631   0.023057   0.000760   0.001145   0.000006   0.000099
     8  N   -0.041863  -0.035813  -0.046232  -0.000033   0.000003  -0.000002
     9  C   -0.003307   0.004540  -0.000280  -0.000003   0.000000   0.000000
    10  C    0.387103   0.384178   0.385320   0.000001   0.000000   0.000000
    11  H    0.000000   0.000000   0.000000   0.000333   0.000035  -0.000010
    12  H    0.000000   0.000000   0.000000  -0.000775  -0.002565   0.000201
    13  H    0.000000   0.000000   0.000000  -0.002772   0.002108   0.000170
    14  H   -0.000004  -0.000024   0.000025  -0.005207   0.000425   0.006910
    15  H    0.000000  -0.000056  -0.000020   0.002606  -0.000125   0.000671
    16  H    0.000250  -0.000204  -0.000078  -0.000020   0.000000  -0.000001
    17  H    0.005994   0.000070  -0.002403   0.000000   0.000000   0.000000
    18  H   -0.000793  -0.000122   0.003421   0.000001   0.000000   0.000000
    19  H    0.604634  -0.027024  -0.043658   0.000000   0.000000   0.000000
    20  H   -0.027024   0.520305  -0.023607   0.000000   0.000000   0.000000
    21  H   -0.043658  -0.023607   0.613435   0.000000   0.000000   0.000000
    22  C    0.000000   0.000000   0.000000   4.892784   0.375973   0.373373
    23  H    0.000000   0.000000   0.000000   0.375973   0.607400  -0.031811
    24  H    0.000000   0.000000   0.000000   0.373373  -0.031811   0.612226
    25  C    0.000000   0.000002   0.000000   0.359323  -0.046173  -0.045500
    26  H    0.000000  -0.000001   0.000000  -0.045885  -0.007713   0.006786
    27  H    0.000000  -0.000012   0.000000  -0.030408   0.006318  -0.008034
    28  O    0.000000   0.000000   0.000000  -0.040260   0.006461   0.005797
    29  C    0.000000   0.000000   0.000000   0.004535  -0.000114  -0.000100
    30  H    0.000000   0.000000   0.000000  -0.000283   0.000007   0.000009
    31  H    0.000000   0.000000   0.000000   0.000078   0.000071  -0.000069
    32  H    0.000000   0.000000   0.000000   0.000009  -0.000073   0.000045
             25         26         27         28         29         30
     1  C   -0.001529  -0.001246   0.000086  -0.000013   0.000002   0.000000
     2  C   -0.001054   0.002311  -0.000107   0.000033  -0.000003   0.000000
     3  O    0.000002  -0.000063   0.000000   0.000000   0.000000   0.000000
     4  N   -0.053139   0.003838   0.001106   0.002025  -0.000130   0.000001
     5  C    0.000411  -0.000432  -0.000143  -0.000044   0.000000   0.000000
     6  C    0.001701   0.000109   0.000098  -0.000002   0.000002   0.000000
     7  O   -0.007674   0.000492   0.019928   0.000067   0.000010   0.000000
     8  N   -0.000047  -0.000002   0.000229   0.000000   0.000000   0.000000
     9  C    0.000001   0.000000  -0.000004   0.000000   0.000000   0.000000
    10  C    0.000002   0.000000  -0.000003   0.000000   0.000000   0.000000
    11  H    0.000013  -0.000034   0.000000   0.000000   0.000000   0.000000
    12  H    0.000239   0.003948  -0.000085  -0.000056  -0.000006   0.000000
    13  H    0.000083   0.000090  -0.000006  -0.000009   0.000000   0.000000
    14  H   -0.001500   0.000031   0.000662   0.000004  -0.000001   0.000000
    15  H   -0.000145   0.000007   0.000035   0.000001   0.000000   0.000000
    16  H    0.000001   0.000000  -0.000001   0.000000   0.000000   0.000000
    17  H    0.000000   0.000000   0.000000   0.000000   0.000000   0.000000
    18  H    0.000000   0.000000   0.000000   0.000000   0.000000   0.000000
    19  H    0.000000   0.000000   0.000000   0.000000   0.000000   0.000000
    20  H    0.000002  -0.000001  -0.000012   0.000000   0.000000   0.000000
    21  H    0.000000   0.000000   0.000000   0.000000   0.000000   0.000000
    22  C    0.359323  -0.045885  -0.030408  -0.040260   0.004535  -0.000283
    23  H   -0.046173  -0.007713   0.006318   0.006461  -0.000114   0.000007
    24  H   -0.045500   0.006786  -0.008034   0.005797  -0.000100   0.000009
    25  C    4.826273   0.359056   0.364058   0.214026  -0.036443   0.005410
    26  H    0.359056   0.691111  -0.053271  -0.039343  -0.005268  -0.000121
    27  H    0.364058  -0.053271   0.593457  -0.032297  -0.005662  -0.000039
    28  O    0.214026  -0.039343  -0.032297   8.225179   0.260922  -0.033445
    29  C   -0.036443  -0.005268  -0.005662   0.260922   4.704267   0.392925
    30  H    0.005410  -0.000121  -0.000039  -0.033445   0.392925   0.595373
    31  H   -0.006374  -0.002624   0.011791  -0.038137   0.372249  -0.034929
    32  H   -0.009570   0.012466  -0.002509  -0.037658   0.370085  -0.036126
             31         32
     1  C    0.000000  -0.000002
     2  C    0.000000   0.000000
     3  O    0.000000   0.000000
     4  N    0.000006   0.000013
     5  C    0.000000   0.000000
     6  C    0.000001   0.000000
     7  O   -0.000030   0.000001
     8  N    0.000000   0.000000
     9  C    0.000000   0.000000
    10  C    0.000000   0.000000
    11  H    0.000000   0.000000
    12  H    0.000000   0.000006
    13  H    0.000000   0.000000
    14  H    0.000000   0.000000
    15  H    0.000000   0.000000
    16  H    0.000000   0.000000
    17  H    0.000000   0.000000
    18  H    0.000000   0.000000
    19  H    0.000000   0.000000
    20  H    0.000000   0.000000
    21  H    0.000000   0.000000
    22  C    0.000078   0.000009
    23  H    0.000071  -0.000073
    24  H   -0.000069   0.000045
    25  C   -0.006374  -0.009570
    26  H   -0.002624   0.012466
    27  H    0.011791  -0.002509
    28  O   -0.038137  -0.037658
    29  C    0.372249   0.370085
    30  H   -0.034929  -0.036126
    31  H    0.652338  -0.052314
    32  H   -0.052314   0.666012
 Mulliken atomic charges:
              1
     1  C   -0.407425
     2  C    0.569425
     3  O   -0.517782
     4  N   -0.425688
     5  C   -0.120225
     6  C    0.594955
     7  O   -0.530134
     8  N   -0.432533
     9  C   -0.200833
    10  C   -0.183449
    11  H    0.143544
    12  H    0.133765
    13  H    0.135811
    14  H    0.127014
    15  H    0.126613
    16  H    0.177655
    17  H    0.115230
    18  H    0.109418
    19  H    0.117767
    20  H    0.157489
    21  H    0.111248
    22  C   -0.078707
    23  H    0.121687
    24  H    0.117773
    25  C    0.078550
    26  H    0.075758
    27  H    0.134815
    28  O   -0.493249
    29  C   -0.057269
    30  H    0.111220
    31  H    0.097945
    32  H    0.089614
 Sum of Mulliken atomic charges =   0.00000
 Mulliken charges with hydrogens summed into heavy atoms:
              1
     1  C    0.005694
     2  C    0.569425
     3  O   -0.517782
     4  N   -0.425688
     5  C    0.133402
     6  C    0.594955
     7  O   -0.530134
     8  N   -0.432533
     9  C    0.201471
    10  C    0.203055
    22  C    0.160752
    25  C    0.289123
    28  O   -0.493249
    29  C    0.241509
 Sum of Mulliken charges with hydrogens summed into heavy atoms =   0.00000
 Electronic spatial extent (au):  <R**2>=           3692.3442
 Charge=              0.0000 electrons
 Dipole moment (field-independent basis, Debye):
    X=             -0.4075    Y=              0.0164    Z=              0.5329  Tot=              0.6711
 Quadrupole moment (field-independent basis, Debye-Ang):
   XX=            -75.5412   YY=            -88.5735   ZZ=            -82.0372
   XY=              4.9312   XZ=             -3.8162   YZ=              1.8388
 Traceless Quadrupole moment (field-independent basis, Debye-Ang):
   XX=              6.5094   YY=             -6.5229   ZZ=              0.0135
   XY=              4.9312   XZ=             -3.8162   YZ=              1.8388
 Octapole moment (field-independent basis, Debye-Ang**2):
  XXX=            -32.6434  YYY=             -3.5532  ZZZ=              2.0201  XYY=             23.4771
  XXY=            -28.2800  XXZ=            -14.6731  XZZ=             -0.7288  YZZ=             -0.4872
  YYZ=             -1.3888  XYZ=             -2.3069
 Hexadecapole moment (field-independent basis, Debye-Ang**3):
 XXXX=          -2921.0488 YYYY=          -1354.3299 ZZZZ=           -305.2682 XXXY=            -53.1599
 XXXZ=            -26.1699 YYYX=             31.2397 YYYZ=              2.4165 ZZZX=              6.7828
 ZZZY=             -5.9027 XXYY=           -694.1414 XXZZ=           -563.9331 YYZZ=           -273.9298
 XXYZ=             28.3394 YYXZ=             -3.2411 ZZXY=              1.6774
 N-N= 9.731416533734D+02 E-N=-3.552394150275D+03  KE= 6.826126548683D+02
 Calling FoFJK, ICntrl=      2127 FMM=F ISym2X=0 I1Cent= 0 IOpClX= 0 NMat=1 NMatS=1 NMatT=0.
 ***** Axes restored to original set *****
 -------------------------------------------------------------------
 Center     Atomic                   Forces (Hartrees/Bohr)
 Number     Number              X              Y              Z
 -------------------------------------------------------------------
      1        6           0.000008714   -0.000015146   -0.000006561
      2        6          -0.000038306   -0.000303265   -0.000408301
      3        8           0.000001344    0.000000667    0.000000416
      4        7          -0.000111493    0.000579043    0.000488318
      5        6           0.000403474   -0.000570243    0.000081424
      6        6          -0.000239934    0.000297201   -0.000163269
      7        8           0.000001302   -0.000012053   -0.000002908
      8        7          -0.000013786    0.000027441    0.000014135
      9        6          -0.000014948   -0.000008274   -0.000014850
     10        6          -0.000002134   -0.000006414   -0.000005781
     11        1          -0.000000983   -0.000003313   -0.000001942
     12        1           0.000002419   -0.000002684   -0.000002327
     13        1          -0.000001925    0.000001068    0.000000269
     14        1          -0.000005455    0.000014898   -0.000004432
     15        1          -0.000006515    0.000003145    0.000002606
     16        1          -0.000001138   -0.000003523   -0.000001980
     17        1           0.000003497   -0.000001539    0.000000108
     18        1           0.000000322    0.000001797    0.000002336
     19        1          -0.000004315    0.000004860    0.000005367
     20        1          -0.000004992    0.000001795    0.000003777
     21        1          -0.000001455   -0.000005875    0.000003103
     22        6           0.000036898   -0.000006793    0.000008668
     23        1          -0.000001702   -0.000000953   -0.000005654
     24        1          -0.000009735    0.000011475   -0.000002784
     25        6           0.000012516   -0.000004621   -0.000008170
     26        1          -0.000007795   -0.000005618    0.000007388
     27        1           0.000006038    0.000008050   -0.000000881
     28        8          -0.000002861   -0.000008897    0.000002596
     29        6          -0.000002936    0.000003510    0.000000189
     30        1          -0.000005936    0.000001918    0.000000250
     31        1           0.000002829    0.000004877    0.000002030
     32        1          -0.000001007   -0.000002535    0.000006859
 -------------------------------------------------------------------
 Cartesian Forces:  Max     0.000579043 RMS     0.000125780

 GradGradGradGradGradGradGradGradGradGradGradGradGradGradGradGradGradGrad
 Berny optimization.
 Internal  Forces:  Max     0.000448750 RMS     0.000061557
 Search for a local minimum.
 Step number   1 out of a maximum of  155 on scan point     1 out of    37
 All quantities printed in internal units (Hartrees-Bohrs-Radians)
 Mixed Optimization -- En-DIIS/RFO-DIIS
 Second derivative matrix not updated -- first step.
 ITU=  0
     Eigenvalues ---    0.00360   0.00490   0.00726   0.00853   0.00870
     Eigenvalues ---    0.00918   0.01074   0.01115   0.01238   0.01461
     Eigenvalues ---    0.01530   0.02036   0.02157   0.02757   0.03972
     Eigenvalues ---    0.05450   0.05461   0.05927   0.06412   0.06941
     Eigenvalues ---    0.07144   0.07466   0.07480   0.07627   0.07702
     Eigenvalues ---    0.09709   0.09956   0.10038   0.10502   0.10922
     Eigenvalues ---    0.11027   0.13065   0.13515   0.16000   0.16000
     Eigenvalues ---    0.16000   0.16000   0.16000   0.16000   0.16000
     Eigenvalues ---    0.16000   0.16000   0.16000   0.16000   0.16000
     Eigenvalues ---    0.21916   0.21980   0.22059   0.24941   0.24955
     Eigenvalues ---    0.24970   0.24978   0.24988   0.24997   0.25000
     Eigenvalues ---    0.25000   0.25000   0.28353   0.29357   0.30281
     Eigenvalues ---    0.33265   0.33506   0.33609   0.33867   0.34017
     Eigenvalues ---    0.34050   0.34100   0.34199   0.34281   0.34374
     Eigenvalues ---    0.34393   0.34428   0.34489   0.34599   0.34868
     Eigenvalues ---    0.34887   0.35016   0.35022   0.36481   0.36545
     Eigenvalues ---    0.36697   0.37151   0.42843   0.43649   0.50226
     Eigenvalues ---    0.51976   0.90111   0.905601000.000001000.00000
     Eigenvalues --- 1000.000001000.000001000.000001000.000001000.00000
     Eigenvalues --- 1000.000001000.000001000.000001000.000001000.00000
     Eigenvalues --- 1000.000001000.000001000.000001000.000001000.00000
     Eigenvalues --- 1000.000001000.000001000.000001000.000001000.00000
     Eigenvalues --- 1000.000001000.000001000.000001000.000001000.00000
     Eigenvalues --- 1000.000001000.000001000.000001000.000001000.00000
     Eigenvalues --- 1000.000001000.000001000.000001000.000001000.00000
     Eigenvalues --- 1000.000001000.000001000.000001000.000001000.00000
     Eigenvalues --- 1000.000001000.000001000.000001000.000001000.00000
     Eigenvalues --- 1000.000001000.000001000.000001000.000001000.00000
     Eigenvalues --- 1000.000001000.000001000.000001000.000001000.00000
 RFO step:  Lambda=-5.16950461D-08 EMin= 3.59648206D-03
 Linear search not attempted -- first point.
 Iteration  1 RMS(Cart)=  0.00030407 RMS(Int)=  0.00000004
 Iteration  2 RMS(Cart)=  0.00000006 RMS(Int)=  0.00000000
 Iteration  1 RMS(Cart)=  0.00000000 RMS(Int)=  0.00000000
 Variable       Old X    -DE/DX   Delta X   Delta X   Delta X     New X
                                 (Linear)    (Quad)   (Total)
    R1        2.87408   0.00000   0.00000  -0.00001  -0.00001   2.87406
    R2        2.05859   0.00000   0.00000  -0.00001  -0.00001   2.05858
    R3        2.06614   0.00000   0.00000   0.00001   0.00001   2.06614
    R4        2.06996   0.00000   0.00000   0.00001   0.00001   2.06997
    R5        2.32676   0.00000   0.00000   0.00000   0.00000   2.32676
    R6        2.59638  -0.00002   0.00000  -0.00004  -0.00004   2.59634
    R7        2.76636   0.00000   0.00000   0.00001   0.00001   2.76637
    R8        2.76537   0.00003   0.00000   0.00007   0.00007   2.76544
    R9        2.91374  -0.00001   0.00000  -0.00004  -0.00004   2.91370
   R10        2.06672  -0.00001   0.00000  -0.00003  -0.00003   2.06669
   R11        2.05649   0.00001   0.00000   0.00002   0.00002   2.05651
   R12        2.32882   0.00001   0.00000   0.00001   0.00001   2.32883
   R13        2.57922   0.00004   0.00000   0.00008   0.00008   2.57930
   R14        2.76306   0.00000   0.00000  -0.00001  -0.00001   2.76305
   R15        2.75619   0.00001   0.00000   0.00002   0.00002   2.75621
   R16        2.05891   0.00000   0.00000  -0.00001  -0.00001   2.05889
   R17        2.06704   0.00000   0.00000  -0.00001  -0.00001   2.06703
   R18        2.07555   0.00000   0.00000   0.00001   0.00001   2.07556
   R19        2.07302   0.00000   0.00000   0.00000   0.00000   2.07302
   R20        2.05639  -0.00001   0.00000  -0.00002  -0.00002   2.05637
   R21        2.07162   0.00000   0.00000   0.00001   0.00001   2.07163
   R22        2.06330   0.00000   0.00000  -0.00001  -0.00001   2.06330
   R23        2.06859  -0.00001   0.00000  -0.00002  -0.00002   2.06857
   R24        2.89263   0.00000   0.00000   0.00000   0.00000   2.89264
   R25        2.08589  -0.00001   0.00000  -0.00002  -0.00002   2.08587
   R26        2.07246  -0.00001   0.00000  -0.00003  -0.00003   2.07243
   R27        2.67864  -0.00001   0.00000  -0.00002  -0.00002   2.67862
   R28        2.66877  -0.00001   0.00000  -0.00003  -0.00003   2.66874
   R29        2.06513  -0.00001   0.00000  -0.00002  -0.00002   2.06511
   R30        2.07995  -0.00001   0.00000  -0.00002  -0.00002   2.07994
   R31        2.08171  -0.00001   0.00000  -0.00002  -0.00002   2.08170
    A1        1.87176   0.00000   0.00000  -0.00001  -0.00001   1.87175
    A2        1.96455   0.00000   0.00000   0.00002   0.00002   1.96457
    A3        1.93937  -0.00001   0.00000  -0.00004  -0.00004   1.93933
    A4        1.90988   0.00000   0.00000   0.00002   0.00002   1.90991
    A5        1.89696   0.00000   0.00000   0.00000   0.00000   1.89696
    A6        1.88043   0.00000   0.00000   0.00001   0.00001   1.88044
    A7        2.10377   0.00002   0.00000   0.00007   0.00007   2.10384
    A8        2.06206  -0.00003   0.00000  -0.00013  -0.00013   2.06193
    A9        2.11723   0.00002   0.00000   0.00006   0.00006   2.11729
   A10        2.03616   0.00002   0.00000   0.00009   0.00009   2.03625
   A11        2.16062   0.00000   0.00000  -0.00008  -0.00008   2.16054
   A12        2.08481  -0.00001   0.00000  -0.00002  -0.00002   2.08480
   A13        1.98210   0.00000   0.00000  -0.00003  -0.00003   1.98207
   A14        1.88030   0.00002   0.00000   0.00002   0.00002   1.88032
   A15        1.89288  -0.00001   0.00000   0.00001   0.00001   1.89290
   A16        1.83318   0.00021   0.00000   0.00008   0.00008   1.83326
   A17        1.97715  -0.00020   0.00000  -0.00003  -0.00003   1.97712
   A18        1.89339  -0.00001   0.00000  -0.00004  -0.00004   1.89335
   A19        2.07407   0.00002   0.00000   0.00006   0.00006   2.07413
   A20        2.07062  -0.00001   0.00000  -0.00006  -0.00006   2.07057
   A21        2.13677   0.00000   0.00000   0.00000   0.00000   2.13677
   A22        2.18740   0.00003   0.00000   0.00010   0.00010   2.18750
   A23        2.06768   0.00001   0.00000   0.00002   0.00002   2.06770
   A24        2.02743  -0.00003   0.00000  -0.00013  -0.00013   2.02730
   A25        1.93090   0.00000   0.00000  -0.00001  -0.00001   1.93088
   A26        1.88857   0.00000   0.00000  -0.00002  -0.00002   1.88855
   A27        1.95436   0.00000   0.00000   0.00001   0.00001   1.95437
   A28        1.87575   0.00000   0.00000   0.00000   0.00000   1.87574
   A29        1.93087   0.00000   0.00000   0.00000   0.00000   1.93087
   A30        1.88045   0.00000   0.00000   0.00002   0.00002   1.88047
   A31        1.93272  -0.00001   0.00000  -0.00006  -0.00006   1.93266
   A32        1.89700   0.00000   0.00000   0.00003   0.00003   1.89703
   A33        1.92004   0.00001   0.00000   0.00003   0.00003   1.92007
   A34        1.90530   0.00000   0.00000   0.00004   0.00004   1.90534
   A35        1.89137   0.00000   0.00000  -0.00002  -0.00002   1.89135
   A36        1.91741   0.00000   0.00000  -0.00002  -0.00002   1.91739
   A37        1.91479   0.00000   0.00000  -0.00003  -0.00003   1.91477
   A38        1.89264  -0.00001   0.00000  -0.00007  -0.00007   1.89257
   A39        1.99858   0.00000   0.00000   0.00000   0.00000   1.99858
   A40        1.85910   0.00000   0.00000   0.00002   0.00002   1.85912
   A41        1.89453   0.00000   0.00000  -0.00002  -0.00002   1.89451
   A42        1.89915   0.00001   0.00000   0.00009   0.00009   1.89924
   A43        1.92114  -0.00001   0.00000  -0.00004  -0.00004   1.92110
   A44        1.92391   0.00000   0.00000   0.00002   0.00002   1.92393
   A45        1.85444   0.00000   0.00000   0.00001   0.00001   1.85445
   A46        1.87265   0.00000   0.00000  -0.00004  -0.00004   1.87261
   A47        1.93584   0.00000   0.00000   0.00005   0.00005   1.93589
   A48        1.95653   0.00000   0.00000   0.00000   0.00000   1.95653
   A49        1.96731  -0.00001   0.00000  -0.00004  -0.00004   1.96727
   A50        1.87311   0.00000   0.00000  -0.00001  -0.00001   1.87310
   A51        1.95141   0.00000   0.00000   0.00001   0.00001   1.95142
   A52        1.95148   0.00000   0.00000  -0.00001  -0.00001   1.95147
   A53        1.90176   0.00000   0.00000   0.00001   0.00001   1.90176
   A54        1.89829   0.00000   0.00000   0.00000   0.00000   1.89829
   A55        1.88676   0.00000   0.00000   0.00000   0.00000   1.88676
    D1       -0.13666   0.00000   0.00000  -0.00013  -0.00013  -0.13679
    D2        3.02130   0.00000   0.00000  -0.00016  -0.00016   3.02113
    D3       -2.23811   0.00000   0.00000  -0.00016  -0.00016  -2.23827
    D4        0.91985   0.00000   0.00000  -0.00020  -0.00020   0.91965
    D5        1.93425   0.00000   0.00000  -0.00016  -0.00016   1.93409
    D6       -1.19098   0.00000   0.00000  -0.00019  -0.00019  -1.19117
    D7        3.09120   0.00007   0.00000   0.00011   0.00011   3.09131
    D8        0.01073  -0.00007   0.00000   0.00018   0.00018   0.01092
    D9       -0.03389   0.00007   0.00000   0.00008   0.00008  -0.03382
   D10       -3.11436  -0.00007   0.00000   0.00015   0.00015  -3.11421
   D11        1.54758  -0.00045   0.00000   0.00000   0.00000   1.54758
   D12       -2.71300  -0.00018   0.00000   0.00009   0.00009  -2.71292
   D13       -0.66692  -0.00018   0.00000   0.00006   0.00006  -0.66686
   D14       -1.65234  -0.00031   0.00000  -0.00007  -0.00007  -1.65241
   D15        0.37026  -0.00004   0.00000   0.00001   0.00001   0.37027
   D16        2.41635  -0.00004   0.00000  -0.00002  -0.00002   2.41633
   D17        0.47853   0.00007   0.00000  -0.00025  -0.00025   0.47828
   D18        2.50250   0.00007   0.00000  -0.00028  -0.00028   2.50222
   D19       -1.65643   0.00008   0.00000  -0.00021  -0.00021  -1.65664
   D20       -2.60033  -0.00008   0.00000  -0.00018  -0.00018  -2.60051
   D21       -0.57637  -0.00008   0.00000  -0.00021  -0.00021  -0.57657
   D22        1.54789  -0.00007   0.00000  -0.00014  -0.00014   1.54775
   D23        1.07120   0.00011   0.00000  -0.00004  -0.00004   1.07117
   D24       -2.13182   0.00011   0.00000   0.00000   0.00000  -2.13182
   D25       -0.97897  -0.00005   0.00000  -0.00009  -0.00009  -0.97906
   D26        2.10119  -0.00005   0.00000  -0.00005  -0.00005   2.10114
   D27       -3.04238  -0.00006   0.00000  -0.00007  -0.00007  -3.04245
   D28        0.03778  -0.00006   0.00000  -0.00003  -0.00003   0.03775
   D29        0.18011   0.00000   0.00000  -0.00003  -0.00003   0.18008
   D30       -3.00245   0.00000   0.00000  -0.00022  -0.00022  -3.00267
   D31       -3.02524   0.00000   0.00000   0.00001   0.00001  -3.02523
   D32        0.07538   0.00000   0.00000  -0.00018  -0.00018   0.07520
   D33        0.53491   0.00000   0.00000  -0.00006  -0.00006   0.53485
   D34        2.58548   0.00000   0.00000  -0.00008  -0.00008   2.58540
   D35       -1.62778   0.00000   0.00000  -0.00006  -0.00006  -1.62784
   D36       -2.56655   0.00000   0.00000   0.00012   0.00012  -2.56644
   D37       -0.51599   0.00000   0.00000   0.00010   0.00010  -0.51589
   D38        1.55394   0.00000   0.00000   0.00012   0.00012   1.55406
   D39       -1.97254   0.00000   0.00000  -0.00023  -0.00023  -1.97277
   D40        0.12032   0.00000   0.00000  -0.00021  -0.00021   0.12011
   D41        2.22034   0.00000   0.00000  -0.00019  -0.00019   2.22014
   D42        1.13182  -0.00001   0.00000  -0.00040  -0.00040   1.13142
   D43       -3.05851   0.00000   0.00000  -0.00037  -0.00037  -3.05889
   D44       -0.95849   0.00000   0.00000  -0.00036  -0.00036  -0.95885
   D45        0.95872   0.00000   0.00000  -0.00029  -0.00029   0.95844
   D46       -1.10365   0.00000   0.00000  -0.00022  -0.00022  -1.10387
   D47        3.05591   0.00000   0.00000  -0.00024  -0.00024   3.05567
   D48       -1.18721   0.00000   0.00000  -0.00024  -0.00024  -1.18745
   D49        3.03361   0.00000   0.00000  -0.00018  -0.00018   3.03343
   D50        0.90998   0.00000   0.00000  -0.00019  -0.00019   0.90979
   D51        3.07941  -0.00001   0.00000  -0.00030  -0.00030   3.07911
   D52        1.01704   0.00000   0.00000  -0.00024  -0.00024   1.01680
   D53       -1.10659   0.00000   0.00000  -0.00025  -0.00025  -1.10684
   D54        3.06969   0.00001   0.00000   0.00024   0.00024   3.06993
   D55       -1.12586   0.00000   0.00000   0.00023   0.00023  -1.12564
   D56        0.96703   0.00000   0.00000   0.00021   0.00021   0.96723
   D57       -3.12985   0.00000   0.00000  -0.00006  -0.00006  -3.12991
   D58       -1.04533   0.00000   0.00000  -0.00006  -0.00006  -1.04539
   D59        1.07304   0.00000   0.00000  -0.00006  -0.00006   1.07298
         Item               Value     Threshold  Converged?
 Maximum Force            0.000039     0.000450     YES
 RMS     Force            0.000008     0.000300     YES
 Maximum Displacement     0.001111     0.001800     YES
 RMS     Displacement     0.000304     0.001200     YES
 Predicted change in Energy=-2.584830D-08
 Optimization completed.
    -- Stationary point found.
                           ----------------------------
                           !   Optimized Parameters   !
                           ! (Angstroms and Degrees)  !
 --------------------------                            --------------------------
 ! Name  Definition              Value          Derivative Info.                !
 --------------------------------------------------------------------------------
 ! R1    R(1,2)                  1.5209         -DE/DX =    0.0                 !
 ! R2    R(1,11)                 1.0894         -DE/DX =    0.0                 !
 ! R3    R(1,12)                 1.0934         -DE/DX =    0.0                 !
 ! R4    R(1,13)                 1.0954         -DE/DX =    0.0                 !
 ! R5    R(2,3)                  1.2313         -DE/DX =    0.0                 !
 ! R6    R(2,4)                  1.3739         -DE/DX =    0.0                 !
 ! R7    R(4,5)                  1.4639         -DE/DX =    0.0                 !
 ! R8    R(4,22)                 1.4634         -DE/DX =    0.0                 !
 ! R9    R(5,6)                  1.5419         -DE/DX =    0.0                 !
 ! R10   R(5,14)                 1.0937         -DE/DX =    0.0                 !
 ! R11   R(5,15)                 1.0882         -DE/DX =    0.0                 !
 ! R12   R(6,7)                  1.2324         -DE/DX =    0.0                 !
 ! R13   R(6,8)                  1.3649         -DE/DX =    0.0                 !
 ! R14   R(8,9)                  1.4621         -DE/DX =    0.0                 !
 ! R15   R(8,10)                 1.4585         -DE/DX =    0.0                 !
 ! R16   R(9,16)                 1.0895         -DE/DX =    0.0                 !
 ! R17   R(9,17)                 1.0938         -DE/DX =    0.0                 !
 ! R18   R(9,18)                 1.0983         -DE/DX =    0.0                 !
 ! R19   R(10,19)                1.097          -DE/DX =    0.0                 !
 ! R20   R(10,20)                1.0882         -DE/DX =    0.0                 !
 ! R21   R(10,21)                1.0963         -DE/DX =    0.0                 !
 ! R22   R(22,23)                1.0919         -DE/DX =    0.0                 !
 ! R23   R(22,24)                1.0946         -DE/DX =    0.0                 !
 ! R24   R(22,25)                1.5307         -DE/DX =    0.0                 !
 ! R25   R(25,26)                1.1038         -DE/DX =    0.0                 !
 ! R26   R(25,27)                1.0967         -DE/DX =    0.0                 !
 ! R27   R(25,28)                1.4175         -DE/DX =    0.0                 !
 ! R28   R(28,29)                1.4123         -DE/DX =    0.0                 !
 ! R29   R(29,30)                1.0928         -DE/DX =    0.0                 !
 ! R30   R(29,31)                1.1007         -DE/DX =    0.0                 !
 ! R31   R(29,32)                1.1016         -DE/DX =    0.0                 !
 ! A1    A(2,1,11)             107.2441         -DE/DX =    0.0                 !
 ! A2    A(2,1,12)             112.5603         -DE/DX =    0.0                 !
 ! A3    A(2,1,13)             111.1179         -DE/DX =    0.0                 !
 ! A4    A(11,1,12)            109.4282         -DE/DX =    0.0                 !
 ! A5    A(11,1,13)            108.6876         -DE/DX =    0.0                 !
 ! A6    A(12,1,13)            107.7405         -DE/DX =    0.0                 !
 ! A7    A(1,2,3)              120.5374         -DE/DX =    0.0                 !
 ! A8    A(1,2,4)              118.1474         -DE/DX =    0.0                 !
 ! A9    A(3,2,4)              121.3084         -DE/DX =    0.0                 !
 ! A10   A(2,4,5)              116.6633         -DE/DX =    0.0                 !
 ! A11   A(2,4,22)             123.7944         -DE/DX =    0.0                 !
 ! A12   A(5,4,22)             119.4509         -DE/DX =    0.0                 !
 ! A13   A(4,5,6)              113.5659         -DE/DX =    0.0                 !
 ! A14   A(4,5,14)             107.7335         -DE/DX =    0.0                 !
 ! A15   A(4,5,15)             108.4543         -DE/DX =    0.0                 !
 ! A16   A(6,5,14)             105.0337         -DE/DX =    0.0002              !
[...]
   D22        1.33404   0.00190   0.00000  -0.04334  -0.04344   1.29059
   D23        2.01057  -0.01197   0.00000   0.06934   0.06942   2.08000
   D24       -0.91009  -0.01748   0.00000   0.00000   0.00000  -0.91008
   D25       -0.16657   0.00397   0.00000   0.12652   0.12632  -0.04025
   D26       -3.08723  -0.00153   0.00000   0.05718   0.05690  -3.03033
   D27       -2.20595   0.00621   0.00000   0.14845   0.14759  -2.05836
   D28        1.15657   0.00071   0.00000   0.07910   0.07817   1.23474
   D29       -0.72048  -0.00320   0.00000   0.00547   0.00598  -0.71451
   D30        2.94947  -0.00042   0.00000   0.01307   0.01359   2.96305
   D31        2.64879  -0.00775   0.00000  -0.06303  -0.06355   2.58524
   D32        0.03556  -0.00497   0.00000  -0.05543  -0.05594  -0.02038
   D33        0.49635  -0.00049   0.00000  -0.05692  -0.05693   0.43941
   D34        2.57082   0.00096   0.00000  -0.04033  -0.04031   2.53050
   D35       -1.64009   0.00022   0.00000  -0.04143  -0.04143  -1.68152
   D36        3.11861  -0.00233   0.00000  -0.06295  -0.06296   3.05564
   D37       -1.09011  -0.00088   0.00000  -0.04636  -0.04634  -1.13645
   D38        0.98217  -0.00162   0.00000  -0.04746  -0.04746   0.93471
   D39       -2.76653   0.00024   0.00000  -0.00123  -0.00123  -2.76775
   D40       -0.66643   0.00031   0.00000  -0.00174  -0.00173  -0.66817
   D41        1.42522   0.00041   0.00000   0.00022   0.00023   1.42544
   D42        0.84732  -0.00049   0.00000   0.00281   0.00281   0.85013
   D43        2.94742  -0.00043   0.00000   0.00231   0.00230   2.94972
   D44       -1.24412  -0.00032   0.00000   0.00427   0.00426  -1.23986
   D45        0.93196   0.00015   0.00000   0.00430   0.00430   0.93626
   D46       -1.14148   0.00018   0.00000   0.00292   0.00292  -1.13856
   D47        3.03449   0.00029   0.00000   0.00638   0.00637   3.04087
   D48       -1.21686  -0.00003   0.00000   0.00243   0.00243  -1.21443
   D49        2.99289   0.00001   0.00000   0.00105   0.00105   2.99393
   D50        0.88567   0.00012   0.00000   0.00450   0.00450   0.89018
   D51        3.04917  -0.00019   0.00000   0.00066   0.00066   3.04982
   D52        0.97573  -0.00015   0.00000  -0.00072  -0.00072   0.97501
   D53       -1.13148  -0.00004   0.00000   0.00273   0.00273  -1.12875
   D54        3.06367  -0.00004   0.00000   0.00991   0.00991   3.07358
   D55       -1.12694   0.00012   0.00000   0.01257   0.01257  -1.11437
   D56        0.96364  -0.00003   0.00000   0.01098   0.01098   0.97462
   D57       -3.13227   0.00001   0.00000  -0.00025  -0.00025  -3.13252
   D58       -1.04911  -0.00001   0.00000  -0.00042  -0.00042  -1.04953
   D59        1.07119   0.00000   0.00000  -0.00064  -0.00064   1.07055
         Item               Value     Threshold  Converged?
 Maximum Force            0.018103     0.000450     NO 
 RMS     Force            0.003073     0.000300     NO 
 Maximum Displacement     0.188558     0.001800     NO 
 RMS     Displacement     0.062556     0.001200     NO 
 Predicted change in Energy=-2.462987D-03
 GradGradGradGradGradGradGradGradGradGradGradGradGradGradGradGradGradGrad

                          Input orientation:                          
 ---------------------------------------------------------------------
 Center     Atomic      Atomic             Coordinates (Angstroms)
 Number     Number       Type             X           Y           Z
 ---------------------------------------------------------------------
      1          6           0        0.787823    2.904301   -0.707676
      2          6           0       -0.206787    2.215146    0.216314
      3          8           0       -1.347475    2.659086    0.335130
      4          7           0        0.235972    1.148161    0.964970
      5          6           0       -0.704130    0.314340    1.718018
      6          6           0       -1.358675   -0.915466    1.025198
      7          8           0       -1.123193   -2.012161    1.536137
      8          7           0       -2.009007   -0.833175   -0.182959
      9          6           0       -2.900945    0.258038   -0.568923
     10          6           0       -2.359654   -2.112617   -0.799784
     11          1           0        0.229597    3.645264   -1.278861
     12          1           0        1.277923    2.208352   -1.394199
     13          1           0        1.568532    3.419742   -0.138756
     14          1           0       -0.187244   -0.114128    2.575923
     15          1           0       -1.488849    0.985857    2.085541
     16          1           0       -2.665429    1.170506   -0.028197
     17          1           0       -2.799142    0.459343   -1.640952
     18          1           0       -3.945878   -0.024077   -0.374675
     19          1           0       -2.504497   -1.949619   -1.871471
     20          1           0       -1.560060   -2.832999   -0.635295
     21          1           0       -3.284659   -2.529652   -0.379816
     22          6           0        1.602378    0.627743    0.869660
     23          1           0        2.281497    1.422191    0.560164
     24          1           0        1.919915    0.314390    1.869799
     25          6           0        1.766056   -0.555629   -0.090028
     26          1           0        1.365573   -0.298309   -1.085608
     27          1           0        1.208795   -1.429986    0.277810
     28          8           0        3.151723   -0.830295   -0.154504
     29          6           0        3.451711   -1.964665   -0.942359
     30          1           0        4.535935   -2.096524   -0.921313
     31          1           0        2.973406   -2.873650   -0.547159
     32          1           0        3.130194   -1.832257   -1.987453
 ---------------------------------------------------------------------
                    Distance matrix (angstroms):
                    1          2          3          4          5
     1  C    0.000000
     2  C    1.522478   0.000000
     3  O    2.388947   1.229784   0.000000
     4  N    2.487230   1.376582   2.277476   0.000000
     5  C    3.849391   2.472959   2.797161   1.464967   0.000000
     6  C    4.711786   3.432473   3.640570   2.608655   1.555908
     7  O    5.732214   4.522373   4.828382   3.487290   2.370928
     8  N    4.697479   3.563660   3.591925   3.206768   2.575501
     9  C    4.541912   3.421309   2.999269   3.603525   3.171634
    10  C    5.923222   4.939313   5.008162   4.525958   3.869134
    11  H    1.089447   2.114525   2.462655   3.357133   4.576919
    12  H    1.093553   2.190471   3.175918   2.788431   4.147495
    13  H    1.094923   2.174600   3.050616   2.855522   4.272719
    14  H    4.565489   3.315668   3.749401   2.089893   1.089384
    15  H    4.082368   2.578536   2.425618   2.063257   1.096263
    16  H    3.923351   2.682532   2.021109   3.066759   2.762061
    17  H    4.440174   3.640410   3.294102   4.059214   3.961412
    18  H    5.576219   4.398203   3.801959   4.544960   3.873348
    19  H    5.979492   5.194572   5.239079   5.015158   4.609909
    20  H    6.199549   5.295314   5.581211   4.651474   4.021994
    21  H    6.798562   5.686983   5.584517   5.265890   4.375880
    22  C    2.886903   2.493950   3.621286   1.465259   2.477481
    23  H    2.456650   2.634116   3.840571   2.103124   3.388499
    24  H    3.825265   3.296930   4.304491   2.085558   2.628431
    25  C    3.648225   3.415135   4.495467   2.521324   3.182403
    26  H    3.276177   3.238020   4.257383   2.751935   3.538266
    27  H    4.464801   3.910836   4.822687   2.839967   2.962457
    28  O    4.454350   4.548825   5.714745   3.697177   4.436680
    29  C    5.555016   5.674324   6.785517   4.865035   5.435300
    30  H    6.253178   6.509846   7.668702   5.707515   6.343234
    31  H    6.179584   6.049161   7.075282   5.094609   5.368293
    32  H    5.436867   5.689772   6.753968   5.096687   5.748081
                    6          7          8          9         10
     6  C    0.000000
     7  O    1.232578   0.000000
     8  N    1.374535   2.264943   0.000000
     9  C    2.509369   3.570082   1.461255   0.000000
    10  C    2.401184   2.644892   1.463010   2.442600   0.000000
    11  H    5.350847   6.462253   5.125306   4.666648   6.331424
    12  H    4.750092   5.671416   4.639170   4.684842   5.679443
    13  H    5.358858   6.289373   5.557700   5.491597   6.817228
    14  H    2.102175   2.357897   3.383382   4.170460   4.484274
    15  H    2.180895   3.069798   2.953901   3.093528   4.322492
    16  H    2.677411   3.867170   2.114137   1.086485   3.386405
    17  H    3.327673   4.360165   2.102537   1.095507   2.741477
    18  H    3.073734   3.946040   2.107811   1.099640   2.656844
    19  H    3.282236   3.677459   2.083994   2.593752   1.093646
    20  H    2.544548   2.362149   2.098919   3.369998   1.088742
    21  H    2.879075   2.934384   2.131684   2.820322   1.098147
    22  C    3.342682   3.852534   4.035392   4.741953   5.098462
    23  H    4.351063   4.933478   4.903807   5.430266   5.990376
    24  H    3.602089   3.845084   4.578989   5.402891   5.597476
    25  C    3.337237   3.621278   3.786392   4.761543   4.466480
    26  H    3.501130   4.000599   3.533928   4.333551   4.153400
    27  H    2.723090   2.713021   3.304956   4.522869   3.789594
    28  O    4.662901   4.746576   5.160809   6.163685   5.695263
    29  C    5.302067   5.203360   5.628179   6.740631   5.814997
    30  H    6.319037   6.170244   6.706525   7.808670   6.896679
    31  H    5.007366   4.675939   5.396352   6.657022   5.393006
    32  H    5.483295   5.526242   5.537667   6.538823   5.623842
                   11         12         13         14         15
    11  H    0.000000
    12  H    1.782416   0.000000
    13  H    1.772977   1.768631   0.000000
    14  H    5.400569   4.827266   4.789621   0.000000
    15  H    4.620033   4.610653   4.496540   1.773307   0.000000
    16  H    4.008711   4.300362   4.795593   3.817476   2.426175
    17  H    4.410722   4.443240   5.486085   4.993287   3.985077
    18  H    5.631715   5.771592   6.505711   4.779275   3.620721
    19  H    6.255332   5.641207   6.958585   5.340224   5.030557
    20  H    6.751662   5.834836   7.009380   4.425924   4.689529
    21  H    7.161555   6.655435   7.681592   4.915803   4.654215
    22  C    3.950457   2.780046   2.968721   2.581560   3.341003
    23  H    3.540390   2.333398   2.233163   3.538113   4.090559
    24  H    4.885280   3.827915   3.714966   2.263263   3.480960
    25  C    4.628340   3.094952   3.980573   3.334306   4.207575
    26  H    4.108474   2.527106   3.842085   3.981453   4.455670
    27  H    5.398168   4.004735   4.880860   2.993615   4.047403
    28  O    5.462018   3.779068   4.535367   4.372280   5.463618
    29  C    6.478160   4.726900   5.760553   5.389322   6.502530
    30  H    7.186134   5.419430   6.312453   6.202336   7.405422
    31  H    7.110564   5.423918   6.461210   5.230517   6.460543
    32  H    6.238494   4.484349   5.782730   5.897606   6.772489
                   16         17         18         19         20
    16  H    0.000000
    17  H    1.767657   0.000000
    18  H    1.785113   1.775432   0.000000
    19  H    3.627497   2.437838   2.832964   0.000000
    20  H    4.197435   3.658714   3.694603   1.788981   0.000000
    21  H    3.768056   3.280287   2.591359   1.780485   1.769614
    22  C    4.394874   5.070002   5.723320   5.569831   4.923682
    23  H    4.988145   5.620043   6.461100   6.339376   5.856050
    24  H    5.035941   5.883527   6.289655   6.220792   5.319002
    25  C    4.756198   4.927126   5.743671   4.832636   4.067773
    26  H    4.418655   4.269345   5.365832   4.280403   3.897020
    27  H    4.676089   4.828538   5.382655   4.321801   3.235547
    28  O    6.152920   6.267815   7.146637   6.016120   5.142265
    29  C    6.934291   6.740699   7.668930   6.028258   5.095699
    30  H    7.958064   7.800878   8.748429   7.105777   6.146979
    31  H    6.958518   6.754816   7.485072   5.710959   4.534504
    32  H    6.815022   6.366202   7.479396   5.637107   4.982800
                   21         22         23         24         25
    21  H    0.000000
    22  C    5.950921   0.000000
    23  H    6.890770   1.090017   0.000000
    24  H    6.343259   1.095124   1.753028   0.000000
    25  C    5.430512   1.532371   2.144807   2.149773   0.000000
    26  H    5.205929   2.176401   2.550999   3.068733   1.103530
    27  H    4.672565   2.177026   3.060282   2.466368   1.100157
    28  O    6.660751   2.361198   2.518281   2.631626   1.414098
    29  C    6.783388   3.663881   3.885585   3.930486   2.356541
    30  H    7.851275   4.385769   4.433804   4.521767   3.276831
    31  H    6.269746   4.018314   4.489894   4.137043   2.653278
    32  H    6.649903   4.068036   4.219250   4.577255   2.662870
                   26         27         28         29         30
    26  H    0.000000
    27  H    1.778814   0.000000
    28  O    2.083338   2.078821   0.000000
    29  C    2.673805   2.608710   1.413330   0.000000
    30  H    3.648529   3.598893   2.026666   1.092415   0.000000
    31  H    3.083412   2.424580   2.088366   1.100551   1.784773
    32  H    2.506034   2.997501   2.089041   1.101420   1.783983
                   31         32
    31  H    0.000000
    32  H    1.784244   0.000000
 Stoichiometry    C9H18N2O3
 Framework group  C1[X(C9H18N2O3)]
 Deg. of freedom    90
 Full point group                 C1      NOp   1
 Largest Abelian subgroup         C1      NOp   1
 Largest concise Abelian subgroup C1      NOp   1
                         Standard orientation:                         
 ---------------------------------------------------------------------
 Center     Atomic      Atomic             Coordinates (Angstroms)
 Number     Number       Type             X           Y           Z
 ---------------------------------------------------------------------
      1          6           0        0.505755    2.931014   -0.940765
      2          6           0       -0.459902    2.144906   -0.064704
      3          8           0       -1.655445    2.432843   -0.053011
      4          7           0        0.058808    1.174855    0.762894
      5          6           0       -0.819822    0.247054    1.479362
      6          6           0       -1.246028   -1.083783    0.795204
      7          8           0       -0.908761   -2.119754    1.371626
      8          7           0       -1.801109   -1.132827   -0.461310
      9          6           0       -2.796209   -0.187561   -0.962822
     10          6           0       -1.926709   -2.468701   -1.044460
     11          1           0       -0.097967    3.568666   -1.585602
     12          1           0        1.138458    2.285164   -1.555924
     13          1           0        1.161899    3.567539   -0.338131
     14          1           0       -0.321912   -0.076949    2.392525
     15          1           0       -1.714331    0.817480    1.755513
     16          1           0       -2.729212    0.766650   -0.447611
     17          1           0       -2.635323   -0.011416   -2.032038
     18          1           0       -3.806503   -0.602772   -0.835881
     19          1           0       -2.004361   -2.364134   -2.130322
     20          1           0       -1.054252   -3.067089   -0.787340
     21          1           0       -2.818911   -2.993318   -0.677476
     22          6           0        1.485586    0.842823    0.795206
     23          1           0        2.075615    1.711351    0.502527
     24          1           0        1.759678    0.610496    1.829708
     25          6           0        1.883072   -0.339589   -0.094776
     26          1           0        1.534152   -0.173900   -1.128498
     27          1           0        1.419315   -1.268582    0.268880
     28          8           0        3.293602   -0.424622   -0.041405
     29          6           0        3.805220   -1.533977   -0.752097
     30          1           0        4.892009   -1.515813   -0.642878
     31          1           0        3.421841   -2.485531   -0.353628
     32          1           0        3.554977   -1.482890   -1.823495
 ---------------------------------------------------------------------
 Rotational constants (GHZ):      0.7002490      0.5288057      0.3710392
 Standard basis: 6-31G(d,p) (6D, 7F)
 There are   300 symmetry adapted basis functions of A   symmetry.
 Integral buffers will be    131072 words long.
 Raffenetti 2 integral format.
 Two-electron integral symmetry is turned on.
   300 basis functions,   518 primitive gaussians,   300 cartesian basis functions
    55 alpha electrons       55 beta electrons
       nuclear repulsion energy       988.9546912438 Hartrees.
 NAtoms=   32 NActive=   32 NUniq=   32 SFac= 1.00D+00 NAtFMM=   60 NAOKFM=F Big=F
 One-electron integrals computed using PRISM.
 NBasis=   300 RedAO= T  NBF=   300
 NBsUse=   300 1.00D-06 NBFU=   300
 Initial guess read from the read-write file.
 B after Tr=     0.000000    0.000000    0.000000
         Rot=    1.000000    0.000000    0.000000    0.000000 Ang=   0.00 deg.
 Initial guess orbital symmetries:
       Occupied  (A) (A) (A) (A) (A) (A) (A) (A) (A) (A) (A) (A)
                 (A) (A) (A) (A) (A) (A) (A) (A) (A) (A) (A) (A)
                 (A) (A) (A) (A) (A) (A) (A) (A) (A) (A) (A) (A)
                 (A) (A) (A) (A) (A) (A) (A) (A) (A) (A) (A) (A)
                 (A) (A) (A) (A) (A) (A) (A)
       Virtual   (A) (A) (A) (A) (A) (A) (A) (A) (A) (A) (A) (A)
                 (A) (A) (A) (A) (A) (A) (A) (A) (A) (A) (A) (A)
                 (A) (A) (A) (A) (A) (A) (A) (A) (A) (A) (A) (A)
                 (A) (A) (A) (A) (A) (A) (A) (A) (A) (A) (A) (A)
                 (A) (A) (A) (A) (A) (A) (A) (A) (A) (A) (A) (A)
                 (A) (A) (A) (A) (A) (A) (A) (A) (A) (A) (A) (A)
                 (A) (A) (A) (A) (A) (A) (A) (A) (A) (A) (A) (A)
                 (A) (A) (A) (A) (A) (A) (A) (A) (A) (A) (A) (A)
                 (A) (A) (A) (A) (A) (A) (A) (A) (A) (A) (A) (A)
                 (A) (A) (A) (A) (A) (A) (A) (A) (A) (A) (A) (A)
                 (A) (A) (A) (A) (A) (A) (A) (A) (A) (A) (A) (A)
                 (A) (A) (A) (A) (A) (A) (A) (A) (A) (A) (A) (A)
                 (A) (A) (A) (A) (A) (A) (A) (A) (A) (A) (A) (A)
                 (A) (A) (A) (A) (A) (A) (A) (A) (A) (A) (A) (A)
                 (A) (A) (A) (A) (A) (A) (A) (A) (A) (A) (A) (A)
                 (A) (A) (A) (A) (A) (A) (A) (A) (A) (A) (A) (A)
                 (A) (A) (A) (A) (A) (A) (A) (A) (A) (A) (A) (A)
                 (A) (A) (A) (A) (A) (A) (A) (A) (A) (A) (A) (A)
                 (A) (A) (A) (A) (A) (A) (A) (A) (A) (A) (A) (A)
                 (A) (A) (A) (A) (A) (A) (A) (A) (A) (A) (A) (A)
                 (A) (A) (A) (A) (A)
 Harris functional with IExCor=  402 diagonalized for initial guess.
 ExpMin= 1.61D-01 ExpMax= 5.48D+03 ExpMxC= 8.25D+02 IAcc=1 IRadAn=         1 AccDes= 0.00D+00
 HarFok:  IExCor=  402 AccDes= 0.00D+00 IRadAn=         1 IDoV= 1
 ScaDFX=  1.000000  1.000000  1.000000  1.000000
 FoFCou: FMM=F IPFlag=           0 FMFlag=      100000 FMFlg1=           0
         NFxFlg=           0 DoJE=T BraDBF=F KetDBF=T FulRan=T
         Omega=  0.000000  0.000000  1.000000  0.000000  0.000000 ICntrl=     500 IOpCl=  0
         NMat0=    1 NMatS0=    1 NMatT0=    0 NMatD0=    1 NMtDS0=    0 NMtDT0=    0
         I1Cent=           4 NGrid=           0.
 Petite list used in FoFCou.
 Requested convergence on RMS density matrix=1.00D-08 within 128 cycles.
 Requested convergence on MAX density matrix=1.00D-06.
 Requested convergence on             energy=1.00D-06.
 No special actions if energy rises.
 Keep R1 ints in memory in canonical form, NReq=1033483281.
 Integral accuracy reduced to 1.0D-05 until final iterations.
 Initial convergence to 1.0D-05 achieved.  Increase integral accuracy.
