 Entering Gaussian System, Link 0=/data/opt/apps/g09-C01/g09
 Initial command:
 /data/opt/apps/g09-C01/l1.exe /tmp/g09-tuu61186-3073248c21e64fea8x/Gau-3073381.inp -scrdir=/tmp/g09-tuu61186-3073248c21e64fea8x/
 Entering Link 1 = /data/opt/apps/g09-C01/l1.exe PID=   3073389.
  
 Copyright (c) 1988,1990,1992,1993,1995,1998,2003,2009,2011,
            Gaussian, Inc.  All Rights Reserved.
  
 This is part of the Gaussian(R) 09 program.  It is based on
 the Gaussian(R) 03 system (copyright 2003, Gaussian, Inc.),
 the Gaussian(R) 98 system (copyright 1998, Gaussian, Inc.),
 the Gaussian(R) 94 system (copyright 1995, Gaussian, Inc.),
 the Gaussian 92(TM) system (copyright 1992, Gaussian, Inc.),
 the Gaussian 90(TM) system (copyright 1990, Gaussian, Inc.),
 the Gaussian 88(TM) system (copyright 1988, Gaussian, Inc.),
 the Gaussian 86(TM) system (copyright 1986, Carnegie Mellon
 University), and the Gaussian 82(TM) system (copyright 1983,
 Carnegie Mellon University). Gaussian is a federally registered
 trademark of Gaussian, Inc.
  
 This software contains proprietary and confidential information,
 including trade secrets, belonging to Gaussian, Inc.
  
 This software is provided under written license and may be
 used, copied, transmitted, or stored only in accord with that
 written license.
  
 The following legend is applicable only to US Government
 contracts under FAR:
  
                    RESTRICTED RIGHTS LEGEND
  
 Use, reproduction and disclosure by the US Government is
 subject to restrictions as set forth in subparagraphs (a)
 and (c) of the Commercial Computer Software - Restricted
 Rights clause in FAR 52.227-19.
  
 Gaussian, Inc.
 340 Quinnipiac St., Bldg. 40, Wallingford CT 06492
  
  
 ---------------------------------------------------------------
 Warning -- This program may not be used in any manner that
 competes with the business of Gaussian, Inc. or will provide
 assistance to any competitor of Gaussian, Inc.  The licensee
 of this program is prohibited from giving any competitor of
 Gaussian, Inc. access to this program.  By using this program,
 the user acknowledges that Gaussian, Inc. is engaged in the
 business of creating and licensing software in the field of
 computational chemistry and represents and warrants to the
 licensee that it is not a competitor of Gaussian, Inc. and that
 it will not use this program in any manner prohibited above.
 ---------------------------------------------------------------
  

 Cite this work as:
 Gaussian 09, Revision C.01,
 M. J. Frisch, G. W. Trucks, H. B. Schlegel, G. E. Scuseria, 
 M. A. Robb, J. R. Cheeseman, G. Scalmani, V. Barone, B. Mennucci, 
 G. A. Petersson, H. Nakatsuji, M. Caricato, X. Li, H. P. Hratchian, 
 A. F. Izmaylov, J. Bloino, G. Zheng, J. L. Sonnenberg, M. Hada, 
 M. Ehara, K. Toyota, R. Fukuda, J. Hasegawa, M. Ishida, T. Nakajima, 
 Y. Honda, O. Kitao, H. Nakai, T. Vreven, J. A. Montgomery, Jr., 
 J. E. Peralta, F. Ogliaro, M. Bearpark, J. J. Heyd, E. Brothers, 
 K. N. Kudin, V. N. Staroverov, T. Keith, R. Kobayashi, J. Normand, 
 K. Raghavachari, A. Rendell, J. C. Burant, S. S. Iyengar, J. Tomasi, 
 M. Cossi, N. Rega, J. M. Millam, M. Klene, J. E. Knox, J. B. Cross, 
 V. Bakken, C. Adamo, J. Jaramillo, R. Gomperts, R. E. Stratmann, 
 O. Yazyev, A. J. Austin, R. Cammi, C. Pomelli, J. W. Ochterski, 
 R. L. Martin, K. Morokuma, V. G. Zakrzewski, G. A. Voth, 
 P. Salvador, J. J. Dannenberg, S. Dapprich, A. D. Daniels, 
 O. Farkas, J. B. Foresman, J. V. Ortiz, J. Cioslowski, 
 and D. J. Fox, Gaussian, Inc., Wallingford CT, 2010.
 
 ******************************************
 Gaussian 09:  EM64L-G09RevC.01 23-Sep-2011
                24-Apr-2026 
 ******************************************
 %nprocshared=8
 Will use up to    8 processors via shared memory.
 %mem=14GB
 -----------------------------------
 # opt=modredundant b3lyp/6-31g(d,p)
 -----------------------------------
 1/14=-1,18=120,19=15,26=3,38=1/1,3;
 2/9=110,12=2,17=6,18=5,40=1/2;
 3/5=1,6=6,7=101,11=2,16=1,25=1,30=1,71=1,74=-5/1,2,3;
 4//1;
 5/5=2,38=5/2;
 6/7=2,8=2,9=2,10=2,28=1/1;
 7//1,2,3,16;
 1/14=-1,18=20,19=15/3(2);
 2/9=110/2;
 99//99;
 2/9=110/2;
 3/5=1,6=6,7=101,11=2,16=1,25=1,30=1,71=1,74=-5/1,2,3;
 4/5=5,16=3/1;
 5/5=2,38=5/2;
 7//1,2,3,16;
 1/14=-1,18=20,19=15/3(-5);
 2/9=110/2;
 6/7=2,8=2,9=2,10=2,19=2,28=1/1;
 99/9=1/99;
 ---------------
 QM dihedral opt
 ---------------
 Charge =  0 Multiplicity = 1
 Symbolic Z-Matrix:
 C                     3.42729   0.64473  -0.24635 
 C                     2.14136   1.4543   -0.16485 
 O                     2.14042   2.66029  -0.38404 
 N                     0.96614   0.78549   0.13854 
 C                    -0.18161   1.68539   0.37737 
 C                    -1.49081   0.95223   0.68148 
 O                    -1.81885   0.74523   1.8476 
 N                    -2.2675    0.56321  -0.38195 
 C                    -1.93721   0.79581  -1.78131 
 C                    -3.5796   -0.01532  -0.12205 
 H                     4.15001   1.24261  -0.80137 
 H                     3.29945  -0.32424  -0.73499 
 H                     3.83235   0.465     0.75589 
 H                     0.00982   2.3045    1.25984 
 H                    -0.26286   2.36355  -0.47225 
 H                    -0.86393   0.92076  -1.91768 
 H                    -2.24641  -0.07386  -2.37097 
 H                    -2.45598   1.67691  -2.18328 
 H                    -3.66094  -1.00621  -0.58445 
 H                    -3.70814  -0.1036    0.95513 
 H                    -4.37065   0.62372  -0.53431 
 C                     0.97678  -0.54934   0.75619 
 H                     1.96032  -0.76232   1.17853 
 H                     0.26885  -0.56506   1.58767 
 C                     0.62492  -1.66273  -0.23218 
 H                     1.29192  -1.61812  -1.11065 
 H                    -0.40618  -1.53631  -0.59889 
 O                     0.77132  -2.8893    0.45248 
 C                     0.43403  -4.00849  -0.33942 
 H                     0.57939  -4.8983    0.27721 
 H                    -0.6157   -3.97329  -0.67074 
 H                     1.07417  -4.08598  -1.23246 
 
 The following ModRedundant input section has been read:
 D       2       4       5       6 F                                           
 D       4       5       6       8 S  36 10.000                                

 GradGradGradGradGradGradGradGradGradGradGradGradGradGradGradGradGradGrad
 Berny optimization.
 Initialization pass.
                           ----------------------------
                           !    Initial Parameters    !
                           ! (Angstroms and Degrees)  !
 --------------------------                            --------------------------
 ! Name  Definition              Value          Derivative Info.                !
 --------------------------------------------------------------------------------
 ! R1    R(1,2)                  1.5217         estimate D2E/DX2                !
 ! R2    R(1,11)                 1.0899         estimate D2E/DX2                !
 ! R3    R(1,12)                 1.0927         estimate D2E/DX2                !
 ! R4    R(1,13)                 1.0958         estimate D2E/DX2                !
 ! R5    R(2,3)                  1.2257         estimate D2E/DX2                !
 ! R6    R(2,4)                  1.3858         estimate D2E/DX2                !
 ! R7    R(4,5)                  1.4779         estimate D2E/DX2                !
 ! R8    R(4,22)                 1.4708         estimate D2E/DX2                !
 ! R9    R(5,6)                  1.531          estimate D2E/DX2                !
 ! R10   R(5,14)                 1.0949         estimate D2E/DX2                !
 ! R11   R(5,15)                 1.0901         estimate D2E/DX2                !
 ! R12   R(6,7)                  1.2289         estimate D2E/DX2                !
 ! R13   R(6,8)                  1.3731         estimate D2E/DX2                !
 ! R14   R(8,9)                  1.4565         estimate D2E/DX2                !
 ! R15   R(8,10)                 1.4573         estimate D2E/DX2                !
 ! R16   R(9,16)                 1.0891         estimate D2E/DX2                !
 ! R17   R(9,17)                 1.0953         estimate D2E/DX2                !
 ! R18   R(9,18)                 1.0987         estimate D2E/DX2                !
 ! R19   R(10,19)                1.0965         estimate D2E/DX2                !
 ! R20   R(10,20)                1.0884         estimate D2E/DX2                !
 ! R21   R(10,21)                1.0973         estimate D2E/DX2                !
 ! R22   R(22,23)                1.0914         estimate D2E/DX2                !
 ! R23   R(22,24)                1.0921         estimate D2E/DX2                !
 ! R24   R(22,25)                1.5298         estimate D2E/DX2                !
 ! R25   R(25,26)                1.1039         estimate D2E/DX2                !
 ! R26   R(25,27)                1.1016         estimate D2E/DX2                !
 ! R27   R(25,28)                1.4123         estimate D2E/DX2                !
 ! R28   R(28,29)                1.4119         estimate D2E/DX2                !
 ! R29   R(29,30)                1.0923         estimate D2E/DX2                !
 ! R30   R(29,31)                1.1013         estimate D2E/DX2                !
 ! R31   R(29,32)                1.1015         estimate D2E/DX2                !
 ! A1    A(2,1,11)             107.2051         estimate D2E/DX2                !
 ! A2    A(2,1,12)             113.3811         estimate D2E/DX2                !
 ! A3    A(2,1,13)             110.526          estimate D2E/DX2                !
 ! A4    A(11,1,12)            109.6517         estimate D2E/DX2                !
 ! A5    A(11,1,13)            108.0965         estimate D2E/DX2                !
 ! A6    A(12,1,13)            107.8663         estimate D2E/DX2                !
 ! A7    A(1,2,3)              120.964          estimate D2E/DX2                !
 ! A8    A(1,2,4)              118.1382         estimate D2E/DX2                !
 ! A9    A(3,2,4)              120.886          estimate D2E/DX2                !
 ! A10   A(2,4,5)              113.5847         estimate D2E/DX2                !
 ! A11   A(2,4,22)             121.5864         estimate D2E/DX2                !
 ! A12   A(5,4,22)             119.3639         estimate D2E/DX2                !
 ! A13   A(4,5,6)              113.8664         estimate D2E/DX2                !
 ! A14   A(4,5,14)             109.8028         estimate D2E/DX2                !
 ! A15   A(4,5,15)             108.1036         estimate D2E/DX2                !
 ! A16   A(6,5,14)             105.0817         estimate D2E/DX2                !
 ! A17   A(6,5,15)             112.8912         estimate D2E/DX2                !
 ! A18   A(14,5,15)            106.825          estimate D2E/DX2                !
 ! A19   A(5,6,7)              119.8282         estimate D2E/DX2                !
 ! A20   A(5,6,8)              117.7443         estimate D2E/DX2                !
 ! A21   A(7,6,8)              122.4225         estimate D2E/DX2                !
 ! A22   A(6,8,9)              124.7889         estimate D2E/DX2                !
 ! A23   A(6,8,10)             118.9222         estimate D2E/DX2                !
 ! A24   A(9,8,10)             116.0342         estimate D2E/DX2                !
 ! A25   A(8,9,16)             111.2292         estimate D2E/DX2                !
 ! A26   A(8,9,17)             109.0513         estimate D2E/DX2                !
 ! A27   A(8,9,18)             111.8714         estimate D2E/DX2                !
 ! A28   A(16,9,17)            107.5711         estimate D2E/DX2                !
 ! A29   A(16,9,18)            109.1182         estimate D2E/DX2                !
 ! A30   A(17,9,18)            107.8486         estimate D2E/DX2                !
 ! A31   A(8,10,19)            110.5074         estimate D2E/DX2                !
 ! A32   A(8,10,20)            108.3622         estimate D2E/DX2                !
 ! A33   A(8,10,21)            110.5409         estimate D2E/DX2                !
 ! A34   A(19,10,20)           109.5905         estimate D2E/DX2                !
 ! A35   A(19,10,21)           108.3227         estimate D2E/DX2                !
 ! A36   A(20,10,21)           109.5065         estimate D2E/DX2                !
 ! A37   A(4,22,23)            110.2501         estimate D2E/DX2                !
 ! A38   A(4,22,24)            109.1522         estimate D2E/DX2                !
 ! A39   A(4,22,25)            112.8009         estimate D2E/DX2                !
 ! A40   A(23,22,24)           106.6624         estimate D2E/DX2                !
 ! A41   A(23,22,25)           108.377          estimate D2E/DX2                !
 ! A42   A(24,22,25)           109.4094         estimate D2E/DX2                !
 ! A43   A(22,25,26)           110.2282         estimate D2E/DX2                !
 ! A44   A(22,25,27)           110.2926         estimate D2E/DX2                !
 ! A45   A(22,25,28)           107.1591         estimate D2E/DX2                !
 ! A46   A(26,25,27)           107.2171         estimate D2E/DX2                !
 ! A47   A(26,25,28)           110.9921         estimate D2E/DX2                !
 ! A48   A(27,25,28)           110.9809         estimate D2E/DX2                !
 ! A49   A(25,28,29)           113.0643         estimate D2E/DX2                !
 ! A50   A(28,29,30)           107.2966         estimate D2E/DX2                !
 ! A51   A(28,29,31)           111.7828         estimate D2E/DX2                !
 ! A52   A(28,29,32)           111.818          estimate D2E/DX2                !
 ! A53   A(30,29,31)           108.8271         estimate D2E/DX2                !
 ! A54   A(30,29,32)           108.8471         estimate D2E/DX2                !
 ! A55   A(31,29,32)           108.1956         estimate D2E/DX2                !
 ! D1    D(11,1,2,3)           -17.2023         estimate D2E/DX2                !
 ! D2    D(11,1,2,4)           161.5561         estimate D2E/DX2                !
 ! D3    D(12,1,2,3)          -138.362          estimate D2E/DX2                !
 ! D4    D(12,1,2,4)            40.3964         estimate D2E/DX2                !
 ! D5    D(13,1,2,3)           100.3881         estimate D2E/DX2                !
 ! D6    D(13,1,2,4)           -80.8535         estimate D2E/DX2                !
 ! D7    D(1,2,4,5)            171.9425         estimate D2E/DX2                !
 ! D8    D(1,2,4,22)            18.2359         estimate D2E/DX2                !
 ! D9    D(3,2,4,5)             -9.2981         estimate D2E/DX2                !
 ! D10   D(3,2,4,22)          -163.0047         estimate D2E/DX2                !
 ! D11   D(2,4,5,6)            178.6698         Frozen                          !
 ! D12   D(2,4,5,14)           -63.8319         estimate D2E/DX2                !
 ! D13   D(2,4,5,15)            52.3602         estimate D2E/DX2                !
 ! D14   D(22,4,5,6)           -26.9863         estimate D2E/DX2                !
 ! D15   D(22,4,5,14)           90.512          estimate D2E/DX2                !
 ! D16   D(22,4,5,15)         -153.2959         estimate D2E/DX2                !
 ! D17   D(2,4,22,23)           16.4103         estimate D2E/DX2                !
 ! D18   D(2,4,22,24)          133.2604         estimate D2E/DX2                !
 ! D19   D(2,4,22,25)         -104.8958         estimate D2E/DX2                !
 ! D20   D(5,4,22,23)         -135.8269         estimate D2E/DX2                !
 ! D21   D(5,4,22,24)          -18.9768         estimate D2E/DX2                !
 ! D22   D(5,4,22,25)          102.867          estimate D2E/DX2                !
 ! D23   D(4,5,6,7)             94.1074         estimate D2E/DX2                !
 ! D24   D(4,5,6,8)            -86.6898         Scan                            !
 ! D25   D(14,5,6,7)           -26.085          estimate D2E/DX2                !
 ! D26   D(14,5,6,8)           153.1178         estimate D2E/DX2                !
 ! D27   D(15,5,6,7)          -142.1369         estimate D2E/DX2                !
 ! D28   D(15,5,6,8)            37.0659         estimate D2E/DX2                !
 ! D29   D(5,6,8,9)              0.05           estimate D2E/DX2                !
 ! D30   D(5,6,8,10)          -173.9106         estimate D2E/DX2                !
 ! D31   D(7,6,8,9)            179.2307         estimate D2E/DX2                !
 ! D32   D(7,6,8,10)             5.2701         estimate D2E/DX2                !
 ! D33   D(6,8,9,16)            23.9622         estimate D2E/DX2                !
 ! D34   D(6,8,9,17)           142.4375         estimate D2E/DX2                !
 ! D35   D(6,8,9,18)           -98.3511         estimate D2E/DX2                !
 ! D36   D(10,8,9,16)         -161.9204         estimate D2E/DX2                !
 ! D37   D(10,8,9,17)          -43.4451         estimate D2E/DX2                !
 ! D38   D(10,8,9,18)           75.7663         estimate D2E/DX2                !
 ! D39   D(6,8,10,19)         -123.7246         estimate D2E/DX2                !
 ! D40   D(6,8,10,20)           -3.6361         estimate D2E/DX2                !
 ! D41   D(6,8,10,21)          116.3696         estimate D2E/DX2                !
 ! D42   D(9,8,10,19)           61.7938         estimate D2E/DX2                !
 ! D43   D(9,8,10,20)         -178.1178         estimate D2E/DX2                !
 ! D44   D(9,8,10,21)          -58.1121         estimate D2E/DX2                !
 ! D45   D(4,22,25,26)          54.6498         estimate D2E/DX2                !
 ! D46   D(4,22,25,27)         -63.5519         estimate D2E/DX2                !
 ! D47   D(4,22,25,28)         175.537          estimate D2E/DX2                !
 ! D48   D(23,22,25,26)        -67.7138         estimate D2E/DX2                !
 ! D49   D(23,22,25,27)        174.0845         estimate D2E/DX2                !
 ! D50   D(23,22,25,28)         53.1735         estimate D2E/DX2                !
 ! D51   D(24,22,25,26)        176.3483         estimate D2E/DX2                !
 ! D52   D(24,22,25,27)         58.1466         estimate D2E/DX2                !
 ! D53   D(24,22,25,28)        -62.7644         estimate D2E/DX2                !
 ! D54   D(22,25,28,29)        178.1304         estimate D2E/DX2                !
 ! D55   D(26,25,28,29)        -61.4673         estimate D2E/DX2                !
 ! D56   D(27,25,28,29)         57.656          estimate D2E/DX2                !
 ! D57   D(25,28,29,30)       -179.9631         estimate D2E/DX2                !
 ! D58   D(25,28,29,31)        -60.7256         estimate D2E/DX2                !
 ! D59   D(25,28,29,32)         60.7545         estimate D2E/DX2                !
 --------------------------------------------------------------------------------
 Trust Radius=3.00D-01 FncErr=1.00D-07 GrdErr=1.00D-06
 Number of optimizations in scan=  37
 Number of steps in this run=    155 maximum allowed number of steps=    192.
 GradGradGradGradGradGradGradGradGradGradGradGradGradGradGradGradGradGrad

                          Input orientation:                          
 ---------------------------------------------------------------------
 Center     Atomic      Atomic             Coordinates (Angstroms)
 Number     Number       Type             X           Y           Z
 ---------------------------------------------------------------------
      1          6           0        3.427295    0.644733   -0.246346
      2          6           0        2.141359    1.454304   -0.164845
      3          8           0        2.140420    2.660292   -0.384038
      4          7           0        0.966140    0.785492    0.138544
      5          6           0       -0.181611    1.685389    0.377366
      6          6           0       -1.490805    0.952232    0.681477
      7          8           0       -1.818852    0.745229    1.847599
      8          7           0       -2.267498    0.563205   -0.381949
      9          6           0       -1.937205    0.795814   -1.781308
     10          6           0       -3.579597   -0.015317   -0.122054
     11          1           0        4.150012    1.242614   -0.801373
     12          1           0        3.299454   -0.324241   -0.734993
     13          1           0        3.832354    0.465004    0.755885
     14          1           0        0.009815    2.304498    1.259838
     15          1           0       -0.262861    2.363548   -0.472251
     16          1           0       -0.863930    0.920756   -1.917677
     17          1           0       -2.246412   -0.073858   -2.370967
     18          1           0       -2.455981    1.676905   -2.183283
     19          1           0       -3.660942   -1.006207   -0.584449
     20          1           0       -3.708138   -0.103597    0.955126
     21          1           0       -4.370654    0.623722   -0.534307
     22          6           0        0.976775   -0.549341    0.756188
     23          1           0        1.960319   -0.762317    1.178525
     24          1           0        0.268845   -0.565061    1.587674
     25          6           0        0.624918   -1.662728   -0.232182
     26          1           0        1.291920   -1.618124   -1.110652
     27          1           0       -0.406177   -1.536305   -0.598894
     28          8           0        0.771318   -2.889296    0.452484
     29          6           0        0.434027   -4.008494   -0.339418
     30          1           0        0.579390   -4.898300    0.277211
     31          1           0       -0.615704   -3.973289   -0.670743
     32          1           0        1.074165   -4.085979   -1.232461
 ---------------------------------------------------------------------
                    Distance matrix (angstroms):
                    1          2          3          4          5
     1  C    0.000000
     2  C    1.521736   0.000000
     3  O    2.395305   1.225746   0.000000
     4  N    2.495043   1.385819   2.273082   0.000000
     5  C    3.807385   2.396577   2.630969   1.477898   0.000000
     6  C    5.014291   3.763104   4.151938   2.521737   1.531010
     7  O    5.649492   4.498443   4.931887   3.267824   2.392915
     8  N    5.696991   4.503245   4.881344   3.282794   2.487324
     9  C    5.581827   4.436355   4.696346   3.480711   2.921186
    10  C    7.039009   5.906857   6.320294   4.623087   3.832510
    11  H    1.089879   2.117703   2.494482   3.351036   4.510924
    12  H    1.092717   2.197607   3.220864   2.727440   4.170584
    13  H    1.095829   2.164699   2.996891   2.949408   4.212426
    14  H    4.086879   2.701117   2.714479   2.116421   1.094850
    15  H    4.077083   2.588725   2.423138   2.091357   1.090115
    16  H    4.613475   3.519781   3.795280   2.755993   2.513453
    17  H    6.100929   5.143422   5.537848   4.166127   3.861565
    18  H    6.279334   5.025851   5.033014   4.230415   3.424873
    19  H    7.285810   6.316398   6.865798   5.014259   4.502835
    20  H    7.274472   6.156136   6.605912   4.827645   3.996332
    21  H    7.803292   6.575156   6.823803   5.381475   4.416601
    22  C    2.904468   2.493823   3.599435   1.470842   2.545463
    23  H    2.482351   2.598235   3.766735   2.113212   3.349774
    24  H    3.847472   3.264271   4.218216   2.100046   2.594664
    25  C    3.630137   3.466989   4.583482   2.499530   3.497417
    26  H    3.229144   3.325043   4.421851   2.728368   3.911354
    27  H    4.424559   3.952478   4.913527   2.796035   3.373844
    28  O    4.475705   4.596191   5.776862   3.693316   4.673485
    29  C    5.533610   5.726048   6.883783   4.847050   5.771750
    30  H    6.253790   6.556732   7.746378   5.698622   6.628281
    31  H    6.152404   6.108690   7.189076   5.079682   5.771274
    32  H    5.374875   5.742251   6.882506   5.061873   6.121863
                    6          7          8          9         10
     6  C    0.000000
     7  O    1.228945   0.000000
     8  N    1.373124   2.281513   0.000000
     9  C    2.507798   3.631189   1.456505   0.000000
    10  C    2.438209   2.749216   1.457339   2.471540   0.000000
    11  H    5.839690   6.549182   6.466989   6.181757   7.860707
    12  H    5.155808   5.831861   5.648288   5.456363   6.913210
    13  H    5.345928   5.762508   6.205844   6.311465   7.479205
    14  H    2.101187   2.474026   3.303592   3.913513   4.491664
    15  H    2.197896   3.228276   2.695915   2.640994   4.096630
    16  H    2.673867   3.888443   2.110997   1.089094   3.387527
    17  H    3.307751   4.318566   2.088657   1.095279   2.615037
    18  H    3.108628   4.185924   2.126184   1.098651   2.893923
    19  H    3.185521   3.517909   2.108494   2.766048   1.096489
    20  H    2.471078   2.255308   2.075533   3.381304   1.088408
    21  H    3.143180   3.492840   2.109536   2.739763   1.097312
    22  C    2.889508   3.268428   3.613644   4.091407   4.670869
    23  H    3.885485   4.123407   4.697502   5.136057   5.739354
    24  H    2.493940   2.478487   3.403738   4.250727   4.246869
    25  C    3.485552   4.011952   3.652845   3.874106   4.517083
    26  H    4.190706   4.900366   4.237766   4.087068   5.222834
    27  H    3.001430   3.631305   2.814165   3.030005   3.551250
    28  O    4.463964   4.676013   4.674446   5.089790   5.245980
    29  C    5.418118   5.697051   5.310412   5.548258   5.665853
    30  H    6.219153   6.329858   6.194134   6.556957   6.426516
    31  H    5.182187   5.482155   4.836487   5.071889   4.975064
    32  H    5.968735   6.418480   5.788350   5.762073   6.281783
                   11         12         13         14         15
    11  H    0.000000
    12  H    1.784066   0.000000
    13  H    1.769360   1.769070   0.000000
    14  H    4.745252   4.659543   4.271945   0.000000
    15  H    4.564895   4.470272   4.677988   1.754415   0.000000
    16  H    5.146780   4.503612   5.423166   3.574182   2.128894
    17  H    6.716470   5.787550   6.857038   4.891818   3.671586
    18  H    6.762945   6.263159   7.046316   4.281250   2.865115
    19  H    8.131129   6.995345   7.753092   5.276042   4.786940
    20  H    8.163828   7.211902   7.564524   4.440152   4.471481
    21  H    8.547286   7.731071   8.305367   5.023193   4.461481
    22  C    3.963147   2.769319   3.030384   3.055008   3.395686
    23  H    3.568543   2.376288   2.278038   3.635441   4.175958
    24  H    4.902927   3.825881   3.801513   2.899818   3.619772
    25  C    4.603399   3.032740   3.973810   4.282915   4.129974
    26  H    4.055634   2.417736   3.778517   4.759199   4.321876
    27  H    5.340622   3.901195   4.879120   4.287155   3.904540
    28  O    5.482738   3.792239   4.551189   5.311045   5.432958
    29  C    6.449502   4.684108   5.723679   6.526212   6.411413
    30  H    7.184950   5.417132   6.290941   7.291795   7.348845
    31  H    7.066453   5.352396   6.443519   6.597653   6.349756
    32  H    6.167704   4.398870   5.680895   6.941368   6.630381
                   16         17         18         19         20
    16  H    0.000000
    17  H    1.762381   0.000000
    18  H    1.782396   1.773222   0.000000
    19  H    3.648830   2.462076   3.347729   0.000000
    20  H    4.170350   3.633238   3.819384   1.785280   0.000000
    21  H    3.781409   2.893500   2.737570   1.778447   1.785030
    22  C    3.563556   4.515985   5.037904   4.849170   4.710273
    23  H    4.516147   5.547022   6.062612   5.896281   5.710974
    24  H    3.972193   4.715786   5.164417   4.511757   4.053327
    25  C    3.425194   3.917071   4.944884   4.350139   4.755624
    26  H    3.427082   4.061151   5.104362   5.018184   5.617990
    27  H    2.825929   2.943715   4.127554   3.297682   3.920533
    28  O    4.775793   5.000526   6.181660   4.926072   5.298896
    29  C    5.336019   5.176225   6.638957   5.083556   5.837944
    30  H    6.384522   6.186537   7.648583   5.819902   6.467739
    31  H    5.056495   4.555824   6.131810   4.252587   5.213551
    32  H    5.412313   5.330998   6.824722   5.685609   6.596615
                   21         22         23         24         25
    21  H    0.000000
    22  C    5.624629   0.000000
    23  H    6.703441   1.091369   0.000000
    24  H    5.238412   1.092145   1.751399   0.000000
    25  C    5.502261   1.529807   2.141058   2.154887   0.000000
    26  H    6.117417   2.174099   2.533672   3.071903   1.103898
    27  H    4.515193   2.173224   3.059179   2.485970   1.101643
    28  O    6.305151   2.368510   2.542616   2.634996   1.412328
    29  C    6.676853   3.668878   3.895046   3.949456   2.355962
    30  H    7.460176   4.393265   4.452605   4.537699   3.275741
    31  H    5.937236   4.036774   4.512874   4.183168   2.658979
    32  H    7.232894   4.058573   4.200578   4.582419   2.659798
                   26         27         28         29         30
    26  H    0.000000
    27  H    1.775422   0.000000
    28  O    2.080937   2.079056   0.000000
    29  C    2.654176   2.623926   1.411906   0.000000
    30  H    3.632274   3.611359   2.025748   1.092299   0.000000
    31  H    3.062573   2.447030   2.088183   1.101340   1.783960
    32  H    2.480436   3.015569   2.088733   1.101502   1.784314
                   31         32
    31  H    0.000000
    32  H    1.784344   0.000000
 Stoichiometry    C9H18N2O3
 Framework group  C1[X(C9H18N2O3)]
 Deg. of freedom    90
 Full point group                 C1      NOp   1
 Largest Abelian subgroup         C1      NOp   1
 Largest concise Abelian subgroup C1      NOp   1
                         Standard orientation:                         
 ---------------------------------------------------------------------
 Center     Atomic      Atomic             Coordinates (Angstroms)
 Number     Number       Type             X           Y           Z
 ---------------------------------------------------------------------
      1          6           0        3.427295   -0.644732    0.246346
      2          6           0        2.141360   -1.454303    0.164845
      3          8           0        2.140421   -2.660291    0.384038
      4          7           0        0.966140   -0.785492   -0.138544
      5          6           0       -0.181610   -1.685389   -0.377366
      6          6           0       -1.490805   -0.952233   -0.681477
      7          8           0       -1.818852   -0.745230   -1.847599
      8          7           0       -2.267498   -0.563206    0.381949
      9          6           0       -1.937205   -0.795815    1.781308
     10          6           0       -3.579597    0.015316    0.122054
     11          1           0        4.150013   -1.242612    0.801373
     12          1           0        3.299454    0.324242    0.734993
     13          1           0        3.832354   -0.465002   -0.755885
     14          1           0        0.009816   -2.304498   -1.259838
     15          1           0       -0.262860   -2.363548    0.472251
     16          1           0       -0.863930   -0.920756    1.917677
     17          1           0       -2.246412    0.073857    2.370967
     18          1           0       -2.455980   -1.676906    2.183283
     19          1           0       -3.660942    1.006206    0.584449
     20          1           0       -3.708138    0.103596   -0.955126
     21          1           0       -4.370654   -0.623724    0.534307
     22          6           0        0.976775    0.549341   -0.756188
     23          1           0        1.960319    0.762318   -1.178525
     24          1           0        0.268845    0.565061   -1.587674
     25          6           0        0.624917    1.662728    0.232182
     26          1           0        1.291919    1.618125    1.110652
     27          1           0       -0.406178    1.536305    0.598894
     28          8           0        0.771317    2.889296   -0.452484
     29          6           0        0.434025    4.008494    0.339418
     30          1           0        0.579388    4.898300   -0.277211
     31          1           0       -0.615706    3.973289    0.670743
     32          1           0        1.074163    4.085979    1.232461
 ---------------------------------------------------------------------
 Rotational constants (GHZ):      0.6271672      0.5520819      0.3528504
 Standard basis: 6-31G(d,p) (6D, 7F)
 There are   300 symmetry adapted basis functions of A   symmetry.
 Integral buffers will be    131072 words long.
 Raffenetti 2 integral format.
 Two-electron integral symmetry is turned on.
   300 basis functions,   518 primitive gaussians,   300 cartesian basis functions
    55 alpha electrons       55 beta electrons
       nuclear repulsion energy       981.4320585855 Hartrees.
 NAtoms=   32 NActive=   32 NUniq=   32 SFac= 1.00D+00 NAtFMM=   60 NAOKFM=F Big=F
 One-electron integrals computed using PRISM.
 NBasis=   300 RedAO= T  NBF=   300
 NBsUse=   300 1.00D-06 NBFU=   300
 Harris functional with IExCor=  402 diagonalized for initial guess.
 ExpMin= 1.61D-01 ExpMax= 5.48D+03 ExpMxC= 8.25D+02 IAcc=1 IRadAn=         1 AccDes= 0.00D+00
 HarFok:  IExCor=  402 AccDes= 0.00D+00 IRadAn=         1 IDoV= 1
 ScaDFX=  1.000000  1.000000  1.000000  1.000000
 FoFCou: FMM=F IPFlag=           0 FMFlag=      100000 FMFlg1=           0
         NFxFlg=           0 DoJE=T BraDBF=F KetDBF=T FulRan=T
         Omega=  0.000000  0.000000  1.000000  0.000000  0.000000 ICntrl=     500 IOpCl=  0
         NMat0=    1 NMatS0=    1 NMatT0=    0 NMatD0=    1 NMtDS0=    0 NMtDT0=    0
         I1Cent=           4 NGrid=           0.
 Petite list used in FoFCou.
 Initial guess orbital symmetries:
       Occupied  (A) (A) (A) (A) (A) (A) (A) (A) (A) (A) (A) (A)
                 (A) (A) (A) (A) (A) (A) (A) (A) (A) (A) (A) (A)
                 (A) (A) (A) (A) (A) (A) (A) (A) (A) (A) (A) (A)
                 (A) (A) (A) (A) (A) (A) (A) (A) (A) (A) (A) (A)
                 (A) (A) (A) (A) (A) (A) (A)
       Virtual   (A) (A) (A) (A) (A) (A) (A) (A) (A) (A) (A) (A)
                 (A) (A) (A) (A) (A) (A) (A) (A) (A) (A) (A) (A)
                 (A) (A) (A) (A) (A) (A) (A) (A) (A) (A) (A) (A)
                 (A) (A) (A) (A) (A) (A) (A) (A) (A) (A) (A) (A)
                 (A) (A) (A) (A) (A) (A) (A) (A) (A) (A) (A) (A)
                 (A) (A) (A) (A) (A) (A) (A) (A) (A) (A) (A) (A)
                 (A) (A) (A) (A) (A) (A) (A) (A) (A) (A) (A) (A)
                 (A) (A) (A) (A) (A) (A) (A) (A) (A) (A) (A) (A)
                 (A) (A) (A) (A) (A) (A) (A) (A) (A) (A) (A) (A)
                 (A) (A) (A) (A) (A) (A) (A) (A) (A) (A) (A) (A)
                 (A) (A) (A) (A) (A) (A) (A) (A) (A) (A) (A) (A)
                 (A) (A) (A) (A) (A) (A) (A) (A) (A) (A) (A) (A)
                 (A) (A) (A) (A) (A) (A) (A) (A) (A) (A) (A) (A)
                 (A) (A) (A) (A) (A) (A) (A) (A) (A) (A) (A) (A)
                 (A) (A) (A) (A) (A) (A) (A) (A) (A) (A) (A) (A)
                 (A) (A) (A) (A) (A) (A) (A) (A) (A) (A) (A) (A)
                 (A) (A) (A) (A) (A) (A) (A) (A) (A) (A) (A) (A)
                 (A) (A) (A) (A) (A) (A) (A) (A) (A) (A) (A) (A)
                 (A) (A) (A) (A) (A) (A) (A) (A) (A) (A) (A) (A)
                 (A) (A) (A) (A) (A) (A) (A) (A) (A) (A) (A) (A)
                 (A) (A) (A) (A) (A)
 The electronic state of the initial guess is 1-A.
 Requested convergence on RMS density matrix=1.00D-08 within 128 cycles.
 Requested convergence on MAX density matrix=1.00D-06.
 Requested convergence on             energy=1.00D-06.
 No special actions if energy rises.
 Keep R1 ints in memory in canonical form, NReq=1033483726.
 Integral accuracy reduced to 1.0D-05 until final iterations.
 Initial convergence to 1.0D-05 achieved.  Increase integral accuracy.
 SCF Done:  E(RB3LYP) =  -688.989994283     A.U. after   15 cycles
             Convg  =    0.6592D-08             -V/T =  2.0093

 **********************************************************************

            Population analysis using the SCF density.

 **********************************************************************

 Orbital symmetries:
       Occupied  (A) (A) (A) (A) (A) (A) (A) (A) (A) (A) (A) (A)
                 (A) (A) (A) (A) (A) (A) (A) (A) (A) (A) (A) (A)
                 (A) (A) (A) (A) (A) (A) (A) (A) (A) (A) (A) (A)
                 (A) (A) (A) (A) (A) (A) (A) (A) (A) (A) (A) (A)
                 (A) (A) (A) (A) (A) (A) (A)
       Virtual   (A) (A) (A) (A) (A) (A) (A) (A) (A) (A) (A) (A)
                 (A) (A) (A) (A) (A) (A) (A) (A) (A) (A) (A) (A)
                 (A) (A) (A) (A) (A) (A) (A) (A) (A) (A) (A) (A)
                 (A) (A) (A) (A) (A) (A) (A) (A) (A) (A) (A) (A)
                 (A) (A) (A) (A) (A) (A) (A) (A) (A) (A) (A) (A)
                 (A) (A) (A) (A) (A) (A) (A) (A) (A) (A) (A) (A)
                 (A) (A) (A) (A) (A) (A) (A) (A) (A) (A) (A) (A)
                 (A) (A) (A) (A) (A) (A) (A) (A) (A) (A) (A) (A)
                 (A) (A) (A) (A) (A) (A) (A) (A) (A) (A) (A) (A)
                 (A) (A) (A) (A) (A) (A) (A) (A) (A) (A) (A) (A)
                 (A) (A) (A) (A) (A) (A) (A) (A) (A) (A) (A) (A)
                 (A) (A) (A) (A) (A) (A) (A) (A) (A) (A) (A) (A)
                 (A) (A) (A) (A) (A) (A) (A) (A) (A) (A) (A) (A)
                 (A) (A) (A) (A) (A) (A) (A) (A) (A) (A) (A) (A)
                 (A) (A) (A) (A) (A) (A) (A) (A) (A) (A) (A) (A)
                 (A) (A) (A) (A) (A) (A) (A) (A) (A) (A) (A) (A)
                 (A) (A) (A) (A) (A) (A) (A) (A) (A) (A) (A) (A)
                 (A) (A) (A) (A) (A) (A) (A) (A) (A) (A) (A) (A)
                 (A) (A) (A) (A) (A) (A) (A) (A) (A) (A) (A) (A)
                 (A) (A) (A) (A) (A) (A) (A) (A) (A) (A) (A) (A)
                 (A) (A) (A) (A) (A)
 The electronic state is 1-A.
 Alpha  occ. eigenvalues --  -19.15664 -19.11468 -19.11143 -14.37494 -14.36840
 Alpha  occ. eigenvalues --  -10.29014 -10.28586 -10.23941 -10.23486 -10.23279
 Alpha  occ. eigenvalues --  -10.22406 -10.22386 -10.21898 -10.19218  -1.04104
 Alpha  occ. eigenvalues --   -1.03711  -1.03049  -0.93933  -0.92966  -0.77358
 Alpha  occ. eigenvalues --   -0.75567  -0.73366  -0.71871  -0.68860  -0.67019
 Alpha  occ. eigenvalues --   -0.62444  -0.55702  -0.54922  -0.51823  -0.50230
 Alpha  occ. eigenvalues --   -0.48868  -0.48408  -0.47951  -0.47024  -0.46419
 Alpha  occ. eigenvalues --   -0.45406  -0.44166  -0.42238  -0.41945  -0.41422
 Alpha  occ. eigenvalues --   -0.40939  -0.40829  -0.39855  -0.38871  -0.38519
 Alpha  occ. eigenvalues --   -0.37725  -0.36604  -0.36165  -0.34782  -0.32700
 Alpha  occ. eigenvalues --   -0.26431  -0.25333  -0.25264  -0.24644  -0.24006
 Alpha virt. eigenvalues --    0.00945   0.02221   0.06416   0.08589   0.09007
 Alpha virt. eigenvalues --    0.11969   0.12282   0.12816   0.13476   0.13959
 Alpha virt. eigenvalues --    0.14468   0.15123   0.15592   0.15909   0.16142
 Alpha virt. eigenvalues --    0.16443   0.17057   0.17514   0.18084   0.18526
 Alpha virt. eigenvalues --    0.19432   0.20186   0.21437   0.22013   0.22391
 Alpha virt. eigenvalues --    0.22881   0.26321   0.27009   0.28626   0.32884
 Alpha virt. eigenvalues --    0.35491   0.36902   0.40618   0.47468   0.47617
 Alpha virt. eigenvalues --    0.49561   0.50236   0.50693   0.52513   0.53272
 Alpha virt. eigenvalues --    0.53639   0.55575   0.55775   0.55928   0.58361
 Alpha virt. eigenvalues --    0.59339   0.61684   0.61926   0.62776   0.65443
 Alpha virt. eigenvalues --    0.66742   0.66922   0.69244   0.69918   0.71048
 Alpha virt. eigenvalues --    0.72745   0.73729   0.75466   0.76143   0.76670
 Alpha virt. eigenvalues --    0.77963   0.80322   0.80579   0.82401   0.82850
 Alpha virt. eigenvalues --    0.83019   0.83633   0.84044   0.84697   0.85777
 Alpha virt. eigenvalues --    0.86525   0.86861   0.88484   0.88901   0.90028
 Alpha virt. eigenvalues --    0.91000   0.92056   0.92859   0.93899   0.94565
 Alpha virt. eigenvalues --    0.95136   0.96867   0.97817   0.98621   0.99290
 Alpha virt. eigenvalues --    1.01250   1.02541   1.05983   1.07403   1.11652
 Alpha virt. eigenvalues --    1.13215   1.14605   1.17503   1.18773   1.20934
 Alpha virt. eigenvalues --    1.25288   1.26734   1.28096   1.30243   1.32601
 Alpha virt. eigenvalues --    1.35533   1.36511   1.37846   1.38332   1.39388
 Alpha virt. eigenvalues --    1.41848   1.44508   1.46815   1.50242   1.53486
 Alpha virt. eigenvalues --    1.54924   1.57930   1.60134   1.62753   1.64105
 Alpha virt. eigenvalues --    1.69348   1.70002   1.71009   1.72035   1.73134
 Alpha virt. eigenvalues --    1.75258   1.76865   1.78669   1.81578   1.81984
 Alpha virt. eigenvalues --    1.83601   1.86274   1.87052   1.87415   1.88708
 Alpha virt. eigenvalues --    1.89154   1.89482   1.91108   1.93057   1.93709
 Alpha virt. eigenvalues --    1.95170   1.96088   1.97096   1.98479   2.00148
 Alpha virt. eigenvalues --    2.00701   2.01790   2.02167   2.02417   2.02616
 Alpha virt. eigenvalues --    2.02737   2.03608   2.04628   2.05177   2.06634
 Alpha virt. eigenvalues --    2.08301   2.09296   2.09390   2.10308   2.10917
 Alpha virt. eigenvalues --    2.11566   2.14563   2.16882   2.17587   2.21565
 Alpha virt. eigenvalues --    2.22799   2.23073   2.27594   2.28217   2.29626
 Alpha virt. eigenvalues --    2.30786   2.32100   2.33954   2.38143   2.39275
 Alpha virt. eigenvalues --    2.41461   2.44575   2.47733   2.49800   2.50818
 Alpha virt. eigenvalues --    2.52465   2.53575   2.55793   2.55965   2.58724
 Alpha virt. eigenvalues --    2.59009   2.61047   2.62643   2.63023   2.64116
 Alpha virt. eigenvalues --    2.65256   2.68076   2.68753   2.69249   2.70149
 Alpha virt. eigenvalues --    2.70693   2.72013   2.73779   2.74109   2.78726
 Alpha virt. eigenvalues --    2.80016   2.80991   2.83645   2.84652   2.85601
 Alpha virt. eigenvalues --    2.86893   2.87968   2.89123   2.90614   2.92113
 Alpha virt. eigenvalues --    2.95969   2.97791   2.99091   3.04607   3.08018
 Alpha virt. eigenvalues --    3.10760   3.11403   3.13498   3.16850   3.17628
 Alpha virt. eigenvalues --    3.23792   3.24084   3.26960   3.34654   3.36356
 Alpha virt. eigenvalues --    3.39175   3.39400   3.41705   3.42654   3.42822
 Alpha virt. eigenvalues --    3.43700   3.43948   3.45615   3.47781   3.49711
 Alpha virt. eigenvalues --    3.56088   3.95976   4.01459   4.06267   4.11943
 Alpha virt. eigenvalues --    4.19527   4.33096   4.35996   4.40227   4.44858
 Alpha virt. eigenvalues --    4.50376   4.52460   4.59997   4.71660   4.74172
          Condensed to atoms (all electrons):
              1          2          3          4          5          6
     1  C    5.136168   0.361304  -0.077667  -0.122411   0.006770   0.000007
     2  C    0.361304   4.373430   0.580662   0.256639  -0.025959   0.005413
     3  O   -0.077667   0.580662   8.073528  -0.104543   0.009046   0.001449
     4  N   -0.122411   0.256639  -0.104543   7.157975   0.255392  -0.031711
     5  C    0.006770  -0.025959   0.009046   0.255392   5.003006   0.308418
     6  C    0.000007   0.005413   0.001449  -0.031711   0.308418   4.499913
     7  O    0.000000  -0.000235  -0.000002  -0.001261  -0.073064   0.531764
     8  N    0.000000  -0.000102   0.000002   0.002861  -0.105800   0.265379
     9  C   -0.000001  -0.000121  -0.000016  -0.004373   0.002796  -0.023303
    10  C    0.000000   0.000006   0.000000  -0.000086   0.005346  -0.028436
    11  H    0.369588  -0.022984   0.004159   0.004381  -0.000124   0.000001
    12  H    0.357624  -0.022715   0.002416   0.003384  -0.000088  -0.000015
    13  H    0.368005  -0.022237   0.000425   0.001235  -0.000241  -0.000006
    14  H    0.000140  -0.003135   0.004756  -0.040085   0.374127  -0.028776
    15  H    0.000340  -0.009087   0.010268  -0.040138   0.362020  -0.025243
    16  H    0.000002   0.001099  -0.000114   0.007485   0.001363  -0.008320
    17  H    0.000000  -0.000013   0.000000  -0.000019  -0.000100   0.002515
    18  H    0.000000   0.000002  -0.000001   0.000078   0.000013  -0.001937
    19  H    0.000000   0.000000   0.000000   0.000013  -0.000165   0.002205
    20  H    0.000000   0.000000   0.000000  -0.000005   0.000979  -0.003295
    21  H    0.000000   0.000000   0.000000  -0.000002  -0.000148   0.000109
    22  C    0.000465  -0.029141   0.001917   0.230215  -0.042731  -0.000116
    23  H    0.006026  -0.008372   0.000206  -0.032807   0.003483   0.000177
    24  H   -0.000365   0.001877  -0.000070  -0.029979  -0.007597   0.001985
    25  C   -0.001368  -0.001380  -0.000034  -0.051531   0.000371  -0.000496
    26  H   -0.001079   0.001291  -0.000033   0.004388   0.000074  -0.000088
    27  H    0.000067   0.000012   0.000001   0.002437  -0.000239   0.001009
    28  O   -0.000019   0.000034   0.000000   0.001985  -0.000025  -0.000043
    29  C    0.000002  -0.000003   0.000000  -0.000121   0.000002  -0.000002
    30  H    0.000000   0.000000   0.000000   0.000001   0.000000   0.000000
    31  H    0.000000   0.000000   0.000000   0.000007  -0.000001  -0.000001
    32  H   -0.000002   0.000000   0.000000   0.000012   0.000000   0.000000
              7          8          9         10         11         12
     1  C    0.000000   0.000000  -0.000001   0.000000   0.369588   0.357624
     2  C   -0.000235  -0.000102  -0.000121   0.000006  -0.022984  -0.022715
     3  O   -0.000002   0.000002  -0.000016   0.000000   0.004159   0.002416
     4  N   -0.001261   0.002861  -0.004373  -0.000086   0.004381   0.003384
     5  C   -0.073064  -0.105800   0.002796   0.005346  -0.000124  -0.000088
     6  C    0.531764   0.265379  -0.023303  -0.028436   0.000001  -0.000015
     7  O    8.120646  -0.094149   0.002826  -0.012456   0.000000   0.000000
     8  N   -0.094149   7.016724   0.284950   0.289715   0.000000   0.000000
     9  C    0.002826   0.284950   4.814698  -0.050046   0.000000   0.000001
    10  C   -0.012456   0.289715  -0.050046   4.825278   0.000000   0.000000
    11  H    0.000000   0.000000   0.000000   0.000000   0.545727  -0.023982
    12  H    0.000000   0.000000   0.000001   0.000000  -0.023982   0.588762
    13  H    0.000000   0.000000   0.000000   0.000000  -0.021524  -0.028964
    14  H    0.002067   0.005152  -0.000115  -0.000148  -0.000011  -0.000006
    15  H    0.003319  -0.000871   0.001503  -0.000194   0.000002  -0.000029
    16  H    0.000038  -0.028572   0.385599   0.003913  -0.000001  -0.000005
    17  H   -0.000050  -0.040932   0.384560  -0.004262   0.000000   0.000000
    18  H   -0.000025  -0.043996   0.383640   0.000083   0.000000   0.000000
    19  H    0.000644  -0.042801  -0.003264   0.383697   0.000000   0.000000
    20  H    0.024586  -0.035956   0.004442   0.383653   0.000000   0.000000
    21  H    0.000696  -0.046121  -0.000091   0.388352   0.000000   0.000000
    22  C   -0.006248  -0.000044   0.000155   0.000002   0.000408  -0.001710
    23  H    0.000082   0.000008  -0.000008   0.000000  -0.000023  -0.002281
    24  H    0.014687  -0.000707  -0.000093   0.000024  -0.000011   0.000233
    25  C    0.000071  -0.002382   0.000247   0.000008   0.000027  -0.000216
    26  H   -0.000005   0.000127  -0.000053   0.000000  -0.000048   0.004278
    27  H   -0.000262   0.005148  -0.000516  -0.000139   0.000000  -0.000078
    28  O   -0.000001   0.000022  -0.000002  -0.000001   0.000000  -0.000050
    29  C    0.000000   0.000006  -0.000001  -0.000002   0.000000  -0.000008
    30  H    0.000000   0.000000   0.000000   0.000000   0.000000   0.000000
    31  H    0.000000  -0.000018   0.000000   0.000000   0.000000   0.000000
    32  H    0.000000   0.000000   0.000000   0.000000   0.000000   0.000007
             13         14         15         16         17         18
     1  C    0.368005   0.000140   0.000340   0.000002   0.000000   0.000000
     2  C   -0.022237  -0.003135  -0.009087   0.001099  -0.000013   0.000002
     3  O    0.000425   0.004756   0.010268  -0.000114   0.000000  -0.000001
     4  N    0.001235  -0.040085  -0.040138   0.007485  -0.000019   0.000078
     5  C   -0.000241   0.374127   0.362020   0.001363  -0.000100   0.000013
     6  C   -0.000006  -0.028776  -0.025243  -0.008320   0.002515  -0.001937
     7  O    0.000000   0.002067   0.003319   0.000038  -0.000050  -0.000025
     8  N    0.000000   0.005152  -0.000871  -0.028572  -0.040932  -0.043996
     9  C    0.000000  -0.000115   0.001503   0.385599   0.384560   0.383640
    10  C    0.000000  -0.000148  -0.000194   0.003913  -0.004262   0.000083
    11  H   -0.021524  -0.000011   0.000002  -0.000001   0.000000   0.000000
    12  H   -0.028964  -0.000006  -0.000029  -0.000005   0.000000   0.000000
    13  H    0.562792   0.000053  -0.000014   0.000001   0.000000   0.000000
    14  H    0.000053   0.580139  -0.039055   0.000488  -0.000017   0.000067
    15  H   -0.000014  -0.039055   0.601332  -0.005408   0.000244   0.000262
    16  H    0.000001   0.000488  -0.005408   0.556165  -0.025271  -0.031775
    17  H    0.000000  -0.000017   0.000244  -0.025271   0.605292  -0.044000
    18  H    0.000000   0.000067   0.000262  -0.031775  -0.044000   0.610603
    19  H    0.000000   0.000001  -0.000008   0.000137   0.006789  -0.001141
    20  H    0.000000  -0.000026  -0.000051  -0.000219   0.000022  -0.000123
    21  H    0.000000   0.000011  -0.000008  -0.000079  -0.002359   0.005038
    22  C   -0.002391  -0.002476   0.005603  -0.001018   0.000004  -0.000001
    23  H    0.002323   0.000231  -0.000221   0.000033   0.000000   0.000000
    24  H    0.000164   0.002139   0.000108   0.000120   0.000024  -0.000006
    25  C   -0.000010  -0.000170   0.000005   0.000270   0.000208  -0.000008
    26  H    0.000097   0.000007  -0.000005   0.000277  -0.000044   0.000001
    27  H   -0.000006   0.000059  -0.000123   0.000091  -0.000119   0.000140
    28  O   -0.000006   0.000002   0.000000   0.000005  -0.000002   0.000000
    29  C    0.000000   0.000000   0.000000  -0.000001  -0.000003   0.000000
    30  H    0.000000   0.000000   0.000000   0.000000   0.000000   0.000000
    31  H    0.000000   0.000000   0.000000   0.000001   0.000015   0.000000
    32  H    0.000000   0.000000   0.000000   0.000000   0.000000   0.000000
             19         20         21         22         23         24
     1  C    0.000000   0.000000   0.000000   0.000465   0.006026  -0.000365
     2  C    0.000000   0.000000   0.000000  -0.029141  -0.008372   0.001877
     3  O    0.000000   0.000000   0.000000   0.001917   0.000206  -0.000070
     4  N    0.000013  -0.000005  -0.000002   0.230215  -0.032807  -0.029979
     5  C   -0.000165   0.000979  -0.000148  -0.042731   0.003483  -0.007597
     6  C    0.002205  -0.003295   0.000109  -0.000116   0.000177   0.001985
     7  O    0.000644   0.024586   0.000696  -0.006248   0.000082   0.014687
     8  N   -0.042801  -0.035956  -0.046121  -0.000044   0.000008  -0.000707
     9  C   -0.003264   0.004442  -0.000091   0.000155  -0.000008  -0.000093
    10  C    0.383697   0.383653   0.388352   0.000002   0.000000   0.000024
    11  H    0.000000   0.000000   0.000000   0.000408  -0.000023  -0.000011
    12  H    0.000000   0.000000   0.000000  -0.001710  -0.002281   0.000233
    13  H    0.000000   0.000000   0.000000  -0.002391   0.002323   0.000164
    14  H    0.000001  -0.000026   0.000011  -0.002476   0.000231   0.002139
    15  H   -0.000008  -0.000051  -0.000008   0.005603  -0.000221   0.000108
    16  H    0.000137  -0.000219  -0.000079  -0.001018   0.000033   0.000120
    17  H    0.006789   0.000022  -0.002359   0.000004   0.000000   0.000024
    18  H   -0.001141  -0.000123   0.005038  -0.000001   0.000000  -0.000006
    19  H    0.610594  -0.024398  -0.043908  -0.000015   0.000000   0.000026
    20  H   -0.024398   0.510830  -0.024392   0.000005   0.000000  -0.000006
    21  H   -0.043908  -0.024392   0.607187   0.000001   0.000000  -0.000004
    22  C   -0.000015   0.000005   0.000001   4.944653   0.377213   0.371557
    23  H    0.000000   0.000000   0.000000   0.377213   0.600368  -0.027640
    24  H    0.000026  -0.000006  -0.000004   0.371557  -0.027640   0.552624
    25  C    0.000101  -0.000002  -0.000002   0.364569  -0.046882  -0.039863
    26  H   -0.000005   0.000000   0.000000  -0.044157  -0.007696   0.005979
    27  H    0.000050  -0.000025   0.000030  -0.036857   0.006705  -0.008516
    28  O   -0.000005   0.000000   0.000000  -0.040206   0.006564   0.005002
    29  C   -0.000004   0.000000   0.000000   0.004637  -0.000085  -0.000095
    30  H    0.000000   0.000000   0.000000  -0.000255   0.000006   0.000008
    31  H    0.000057   0.000000   0.000000   0.000029   0.000062  -0.000053
    32  H    0.000000   0.000000   0.000000  -0.000002  -0.000071   0.000038
             25         26         27         28         29         30
     1  C   -0.001368  -0.001079   0.000067  -0.000019   0.000002   0.000000
     2  C   -0.001380   0.001291   0.000012   0.000034  -0.000003   0.000000
     3  O   -0.000034  -0.000033   0.000001   0.000000   0.000000   0.000000
     4  N   -0.051531   0.004388   0.002437   0.001985  -0.000121   0.000001
     5  C    0.000371   0.000074  -0.000239  -0.000025   0.000002   0.000000
     6  C   -0.000496  -0.000088   0.001009  -0.000043  -0.000002   0.000000
     7  O    0.000071  -0.000005  -0.000262  -0.000001   0.000000   0.000000
     8  N   -0.002382   0.000127   0.005148   0.000022   0.000006   0.000000
     9  C    0.000247  -0.000053  -0.000516  -0.000002  -0.000001   0.000000
    10  C    0.000008   0.000000  -0.000139  -0.000001  -0.000002   0.000000
    11  H    0.000027  -0.000048   0.000000   0.000000   0.000000   0.000000
    12  H   -0.000216   0.004278  -0.000078  -0.000050  -0.000008   0.000000
    13  H   -0.000010   0.000097  -0.000006  -0.000006   0.000000   0.000000
    14  H   -0.000170   0.000007   0.000059   0.000002   0.000000   0.000000
    15  H    0.000005  -0.000005  -0.000123   0.000000   0.000000   0.000000
    16  H    0.000270   0.000277   0.000091   0.000005  -0.000001   0.000000
    17  H    0.000208  -0.000044  -0.000119  -0.000002  -0.000003   0.000000
    18  H   -0.000008   0.000001   0.000140   0.000000   0.000000   0.000000
    19  H    0.000101  -0.000005   0.000050  -0.000005  -0.000004   0.000000
    20  H   -0.000002   0.000000  -0.000025   0.000000   0.000000   0.000000
    21  H   -0.000002   0.000000   0.000030   0.000000   0.000000   0.000000
    22  C    0.364569  -0.044157  -0.036857  -0.040206   0.004637  -0.000255
    23  H   -0.046882  -0.007696   0.006705   0.006564  -0.000085   0.000006
    24  H   -0.039863   0.005979  -0.008516   0.005002  -0.000095   0.000008
    25  C    4.780859   0.359616   0.360218   0.229618  -0.034212   0.005290
    26  H    0.359616   0.694690  -0.060694  -0.039404  -0.006112  -0.000106
    27  H    0.360218  -0.060694   0.677819  -0.037279  -0.006383  -0.000089
    28  O    0.229618  -0.039404  -0.037279   8.205604   0.259895  -0.032825
    29  C   -0.034212  -0.006112  -0.006383   0.259895   4.706277   0.395269
    30  H    0.005290  -0.000106  -0.000089  -0.032825   0.395269   0.583229
    31  H   -0.008786  -0.002711   0.013472  -0.037975   0.369631  -0.034735
    32  H   -0.009203   0.013140  -0.002763  -0.037643   0.369734  -0.035042
             31         32
     1  C    0.000000  -0.000002
     2  C    0.000000   0.000000
     3  O    0.000000   0.000000
     4  N    0.000007   0.000012
     5  C   -0.000001   0.000000
     6  C   -0.000001   0.000000
     7  O    0.000000   0.000000
     8  N   -0.000018   0.000000
     9  C    0.000000   0.000000
    10  C    0.000000   0.000000
    11  H    0.000000   0.000000
    12  H    0.000000   0.000007
    13  H    0.000000   0.000000
    14  H    0.000000   0.000000
    15  H    0.000000   0.000000
    16  H    0.000001   0.000000
    17  H    0.000015   0.000000
    18  H    0.000000   0.000000
    19  H    0.000057   0.000000
    20  H    0.000000   0.000000
    21  H    0.000000   0.000000
    22  C    0.000029  -0.000002
    23  H    0.000062  -0.000071
    24  H   -0.000053   0.000038
    25  C   -0.008786  -0.009203
    26  H   -0.002711   0.013140
    27  H    0.013472  -0.002763
    28  O   -0.037975  -0.037643
    29  C    0.369631   0.369734
    30  H   -0.034735  -0.035042
    31  H    0.663083  -0.053095
    32  H   -0.053095   0.664019
 Mulliken atomic charges:
              1
     1  C   -0.403596
     2  C    0.563716
     3  O   -0.506354
     4  N   -0.469414
     5  C   -0.076923
     6  C    0.531446
     7  O   -0.513667
     8  N   -0.427644
     9  C   -0.183413
    10  C   -0.184308
    11  H    0.144417
    12  H    0.123441
    13  H    0.140307
    14  H    0.144583
    15  H    0.135449
    16  H    0.143699
    17  H    0.117518
    18  H    0.123085
    19  H    0.111403
    20  H    0.163980
    21  H    0.115692
    22  C   -0.094067
    23  H    0.122599
    24  H    0.158410
    25  C    0.095066
    26  H    0.078273
    27  H    0.086828
    28  O   -0.483243
    29  C   -0.058422
    30  H    0.119249
    31  H    0.091018
    32  H    0.090871
 Sum of Mulliken atomic charges =   0.00000
 Mulliken charges with hydrogens summed into heavy atoms:
              1
     1  C    0.004570
     2  C    0.563716
     3  O   -0.506354
     4  N   -0.469414
     5  C    0.203109
     6  C    0.531446
     7  O   -0.513667
     8  N   -0.427644
     9  C    0.200888
    10  C    0.206767
    22  C    0.186942
    25  C    0.260167
    28  O   -0.483243
    29  C    0.242716
 Sum of Mulliken charges with hydrogens summed into heavy atoms =   0.00000
 Electronic spatial extent (au):  <R**2>=           3390.4972
 Charge=              0.0000 electrons
 Dipole moment (field-independent basis, Debye):
    X=             -1.1638    Y=              3.0924    Z=              3.4316  Tot=              4.7637
 Quadrupole moment (field-independent basis, Debye-Ang):
   XX=            -79.3422   YY=            -90.3439   ZZ=            -88.5251
   XY=              5.6276   XZ=             -8.1534   YZ=              2.6558
 Traceless Quadrupole moment (field-independent basis, Debye-Ang):
   XX=              6.7282   YY=             -4.2735   ZZ=             -2.4547
   XY=              5.6276   XZ=             -8.1534   YZ=              2.6558
 Octapole moment (field-independent basis, Debye-Ang**2):
  XXX=             -8.1263  YYY=             55.1960  ZZZ=             10.0432  XYY=            -29.4238
  XXY=             12.1849  XXZ=              9.0355  XZZ=              9.2906  YZZ=              0.5475
  YYZ=              3.4384  XYZ=             11.6756
 Hexadecapole moment (field-independent basis, Debye-Ang**3):
 XXXX=          -1977.9251 YYYY=          -1695.9644 ZZZZ=           -485.0345 XXXY=              6.4629
 XXXZ=            -18.2229 YYYX=             82.2347 YYYZ=             34.8849 ZZZX=            -22.8363
 ZZZY=            -16.5012 XXYY=           -706.1790 XXZZ=           -436.6437 YYZZ=           -373.7564
 XXYZ=             -4.2803 YYXZ=             -7.5091 ZZXY=             -8.0595
 N-N= 9.814320585855D+02 E-N=-3.568309868760D+03  KE= 6.826242203576D+02
 Calling FoFJK, ICntrl=      2127 FMM=F ISym2X=0 I1Cent= 0 IOpClX= 0 NMat=1 NMatS=1 NMatT=0.
 ***** Axes restored to original set *****
 -------------------------------------------------------------------
 Center     Atomic                   Forces (Hartrees/Bohr)
 Number     Number              X              Y              Z
 -------------------------------------------------------------------
      1        6          -0.000000078    0.000000093    0.000001912
      2        6          -0.000916320   -0.000139296   -0.003887327
      3        8          -0.000002456   -0.000002014    0.000002465
      4        7           0.000933355    0.000171421    0.003863300
      5        6           0.000774393    0.000035718    0.003573458
      6        6          -0.000789327   -0.000062424   -0.003538287
      7        8           0.000002114   -0.000003307    0.000000084
      8        7          -0.000004044   -0.000003948   -0.000001502
      9        6          -0.000000152    0.000002785    0.000004817
     10        6           0.000001451   -0.000000957   -0.000001781
     11        1          -0.000000665    0.000001234    0.000001100
     12        1          -0.000000236    0.000001887   -0.000000558
     13        1          -0.000001092    0.000000900    0.000000325
     14        1          -0.000000371   -0.000001306    0.000001152
     15        1          -0.000000295    0.000001264    0.000000891
     16        1           0.000000015    0.000001407   -0.000000283
     17        1           0.000000521    0.000000713    0.000000346
     18        1          -0.000000364    0.000001164    0.000001622
     19        1          -0.000001044   -0.000000654   -0.000000538
     20        1           0.000000752   -0.000001565   -0.000000114
     21        1          -0.000000815   -0.000000384   -0.000001073
     22        6          -0.000000103   -0.000002099    0.000001711
     23        1          -0.000000232   -0.000001278   -0.000000690
     24        1          -0.000000641   -0.000001833   -0.000000737
     25        6           0.000000763   -0.000001503   -0.000002491
     26        1           0.000000300    0.000000898   -0.000001457
     27        1           0.000000456    0.000000413   -0.000000684
     28        8           0.000000617    0.000000058   -0.000000306
     29        6          -0.000000096    0.000001365   -0.000004937
     30        1           0.000001570    0.000000814   -0.000003542
     31        1           0.000000868   -0.000000082   -0.000003072
     32        1           0.000001156    0.000000519   -0.000003804
 -------------------------------------------------------------------
 Cartesian Forces:  Max     0.003887327 RMS     0.000779377

 GradGradGradGradGradGradGradGradGradGradGradGradGradGradGradGradGradGrad
 Berny optimization.
 Internal  Forces:  Max     0.003694299 RMS     0.000494683
 Search for a local minimum.
 Step number   1 out of a maximum of  155 on scan point     1 out of    37
 All quantities printed in internal units (Hartrees-Bohrs-Radians)
 Mixed Optimization -- En-DIIS/RFO-DIIS
 Second derivative matrix not updated -- first step.
 ITU=  0
     Eigenvalues ---    0.00372   0.00478   0.00755   0.00781   0.00933
     Eigenvalues ---    0.00944   0.01039   0.01155   0.01256   0.01529
     Eigenvalues ---    0.01534   0.01879   0.02047   0.02703   0.04117
     Eigenvalues ---    0.05378   0.05476   0.05893   0.06332   0.06857
     Eigenvalues ---    0.07193   0.07468   0.07499   0.07582   0.07659
     Eigenvalues ---    0.09407   0.10038   0.10066   0.10510   0.11014
     Eigenvalues ---    0.11080   0.12877   0.13600   0.16000   0.16000
     Eigenvalues ---    0.16000   0.16000   0.16000   0.16000   0.16000
     Eigenvalues ---    0.16000   0.16000   0.16000   0.16000   0.16000
     Eigenvalues ---    0.21930   0.21947   0.21957   0.22072   0.23312
     Eigenvalues ---    0.24859   0.24922   0.24995   0.24998   0.25000
     Eigenvalues ---    0.25000   0.25000   0.29330   0.29441   0.30200
     Eigenvalues ---    0.33255   0.33501   0.33517   0.33534   0.33832
     Eigenvalues ---    0.33981   0.34073   0.34148   0.34210   0.34258
     Eigenvalues ---    0.34501   0.34548   0.34566   0.34655   0.34799
     Eigenvalues ---    0.34811   0.34827   0.34918   0.34997   0.35640
     Eigenvalues ---    0.37299   0.37405   0.43637   0.43703   0.48054
     Eigenvalues ---    0.50381   0.91527   0.928821000.000001000.00000
     Eigenvalues --- 1000.000001000.000001000.000001000.000001000.00000
     Eigenvalues --- 1000.000001000.000001000.000001000.000001000.00000
     Eigenvalues --- 1000.000001000.000001000.000001000.000001000.00000
     Eigenvalues --- 1000.000001000.000001000.000001000.000001000.00000
     Eigenvalues --- 1000.000001000.000001000.000001000.000001000.00000
     Eigenvalues --- 1000.000001000.000001000.000001000.000001000.00000
     Eigenvalues --- 1000.000001000.000001000.000001000.000001000.00000
     Eigenvalues --- 1000.000001000.000001000.000001000.000001000.00000
     Eigenvalues --- 1000.000001000.000001000.000001000.000001000.00000
     Eigenvalues --- 1000.000001000.000001000.000001000.000001000.00000
     Eigenvalues --- 1000.000001000.000001000.000001000.000001000.00000
 RFO step:  Lambda= 0.00000000D+00 EMin= 3.71659009D-03
 Linear search not attempted -- first point.
 Iteration  1 RMS(Cart)=  0.00009130 RMS(Int)=  0.00000000
 Iteration  2 RMS(Cart)=  0.00000000 RMS(Int)=  0.00000000
 Iteration  1 RMS(Cart)=  0.00000000 RMS(Int)=  0.00000000
 Variable       Old X    -DE/DX   Delta X   Delta X   Delta X     New X
                                 (Linear)    (Quad)   (Total)
    R1        2.87566   0.00000   0.00000   0.00000   0.00000   2.87566
    R2        2.05957   0.00000   0.00000   0.00000   0.00000   2.05957
    R3        2.06494   0.00000   0.00000   0.00000   0.00000   2.06493
    R4        2.07082   0.00000   0.00000   0.00000   0.00000   2.07081
    R5        2.31632   0.00000   0.00000   0.00000   0.00000   2.31632
    R6        2.61882   0.00000   0.00000   0.00001   0.00001   2.61883
    R7        2.79282   0.00000   0.00000   0.00000   0.00000   2.79282
    R8        2.77949   0.00000   0.00000   0.00001   0.00001   2.77950
    R9        2.89319   0.00000   0.00000   0.00001   0.00001   2.89320
   R10        2.06897   0.00000   0.00000   0.00000   0.00000   2.06896
   R11        2.06002   0.00000   0.00000   0.00001   0.00001   2.06002
   R12        2.32237   0.00000   0.00000   0.00000   0.00000   2.32237
   R13        2.59483   0.00000   0.00000   0.00001   0.00001   2.59484
   R14        2.75240   0.00000   0.00000  -0.00001  -0.00001   2.75239
   R15        2.75397   0.00000   0.00000   0.00000   0.00000   2.75397
   R16        2.05809   0.00000   0.00000   0.00000   0.00000   2.05809
   R17        2.06978   0.00000   0.00000   0.00000   0.00000   2.06978
   R18        2.07615   0.00000   0.00000   0.00000   0.00000   2.07615
   R19        2.07206   0.00000   0.00000   0.00000   0.00000   2.07207
   R20        2.05679   0.00000   0.00000   0.00000   0.00000   2.05679
   R21        2.07362   0.00000   0.00000   0.00000   0.00000   2.07362
   R22        2.06239   0.00000   0.00000   0.00000   0.00000   2.06239
   R23        2.06386   0.00000   0.00000   0.00000   0.00000   2.06386
   R24        2.89092   0.00000   0.00000   0.00000   0.00000   2.89092
   R25        2.08606   0.00000   0.00000   0.00000   0.00000   2.08607
   R26        2.08180   0.00000   0.00000   0.00000   0.00000   2.08180
   R27        2.66891   0.00000   0.00000   0.00000   0.00000   2.66891
   R28        2.66812   0.00000   0.00000   0.00000   0.00000   2.66811
   R29        2.06415   0.00000   0.00000   0.00000   0.00000   2.06414
   R30        2.08123   0.00000   0.00000   0.00000   0.00000   2.08123
   R31        2.08154   0.00000   0.00000   0.00000   0.00000   2.08154
    A1        1.87108   0.00000   0.00000   0.00000   0.00000   1.87108
    A2        1.97887   0.00000   0.00000   0.00000   0.00000   1.97887
    A3        1.92904   0.00000   0.00000   0.00000   0.00000   1.92904
    A4        1.91378   0.00000   0.00000   0.00000   0.00000   1.91378
    A5        1.88664   0.00000   0.00000   0.00000   0.00000   1.88664
    A6        1.88262   0.00000   0.00000   0.00001   0.00001   1.88263
    A7        2.11122   0.00000   0.00000   0.00001   0.00001   2.11123
    A8        2.06190   0.00000   0.00000   0.00000   0.00000   2.06190
    A9        2.10986   0.00000   0.00000  -0.00001  -0.00001   2.10985
   A10        1.98243  -0.00027   0.00000  -0.00001  -0.00001   1.98241
   A11        2.12208   0.00094   0.00000   0.00000   0.00000   2.12208
   A12        2.08329  -0.00018   0.00000  -0.00001  -0.00001   2.08328
   A13        1.98734   0.00008   0.00000  -0.00001  -0.00001   1.98734
   A14        1.91642   0.00015   0.00000   0.00000   0.00000   1.91642
   A15        1.88676  -0.00012   0.00000   0.00000   0.00000   1.88676
   A16        1.83402   0.00160   0.00000   0.00001   0.00001   1.83403
   A17        1.97032  -0.00160   0.00000   0.00000   0.00000   1.97032
   A18        1.86445  -0.00004   0.00000   0.00000   0.00000   1.86445
   A19        2.09140   0.00000   0.00000   0.00000   0.00000   2.09140
   A20        2.05503   0.00000   0.00000  -0.00001  -0.00001   2.05502
   A21        2.13668   0.00000   0.00000   0.00001   0.00001   2.13669
   A22        2.17798   0.00000   0.00000  -0.00001  -0.00001   2.17796
   A23        2.07558   0.00000   0.00000   0.00002   0.00002   2.07560
   A24        2.02518   0.00000   0.00000  -0.00001  -0.00001   2.02517
   A25        1.94132   0.00000   0.00000   0.00001   0.00001   1.94133
   A26        1.90330   0.00000   0.00000  -0.00001  -0.00001   1.90330
   A27        1.95252   0.00000   0.00000   0.00000   0.00000   1.95252
   A28        1.87747   0.00000   0.00000  -0.00001  -0.00001   1.87746
   A29        1.90447   0.00000   0.00000   0.00000   0.00000   1.90447
   A30        1.88231   0.00000   0.00000   0.00000   0.00000   1.88231
   A31        1.92872   0.00000   0.00000   0.00001   0.00001   1.92873
   A32        1.89128   0.00000   0.00000  -0.00001  -0.00001   1.89127
   A33        1.92930   0.00000   0.00000   0.00000   0.00000   1.92930
   A34        1.91271   0.00000   0.00000   0.00000   0.00000   1.91271
   A35        1.89059   0.00000   0.00000  -0.00001  -0.00001   1.89058
   A36        1.91125   0.00000   0.00000   0.00001   0.00001   1.91126
   A37        1.92423   0.00000   0.00000   0.00000   0.00000   1.92423
   A38        1.90507   0.00000   0.00000   0.00000   0.00000   1.90506
   A39        1.96875   0.00000   0.00000   0.00001   0.00001   1.96876
   A40        1.86161   0.00000   0.00000   0.00000   0.00000   1.86161
   A41        1.89154   0.00000   0.00000  -0.00001  -0.00001   1.89153
   A42        1.90955   0.00000   0.00000  -0.00001  -0.00001   1.90954
   A43        1.92385   0.00000   0.00000   0.00001   0.00001   1.92385
   A44        1.92497   0.00000   0.00000   0.00000   0.00000   1.92497
   A45        1.87028   0.00000   0.00000  -0.00002  -0.00002   1.87026
   A46        1.87129   0.00000   0.00000   0.00000   0.00000   1.87130
   A47        1.93718   0.00000   0.00000   0.00000   0.00000   1.93718
   A48        1.93698   0.00000   0.00000   0.00000   0.00000   1.93698
   A49        1.97334   0.00000   0.00000   0.00000   0.00000   1.97334
   A50        1.87268   0.00000   0.00000  -0.00002  -0.00002   1.87266
   A51        1.95098   0.00000   0.00000   0.00000   0.00000   1.95098
   A52        1.95159   0.00000   0.00000   0.00001   0.00001   1.95160
   A53        1.89939   0.00000   0.00000   0.00000   0.00000   1.89939
   A54        1.89974   0.00000   0.00000   0.00000   0.00000   1.89974
   A55        1.88837   0.00000   0.00000   0.00000   0.00000   1.88837
    D1       -0.30024   0.00000   0.00000   0.00002   0.00002  -0.30021
    D2        2.81969   0.00000   0.00000  -0.00005  -0.00005   2.81963
    D3       -2.41487   0.00000   0.00000   0.00003   0.00003  -2.41484
    D4        0.70505   0.00000   0.00000  -0.00005  -0.00005   0.70500
    D5        1.75210   0.00000   0.00000   0.00003   0.00003   1.75213
    D6       -1.41116   0.00000   0.00000  -0.00005  -0.00005  -1.41121
    D7        3.00096   0.00050   0.00000   0.00000   0.00000   3.00097
    D8        0.31828  -0.00050   0.00000   0.00007   0.00007   0.31834
    D9       -0.16228   0.00050   0.00000  -0.00007  -0.00007  -0.16236
   D10       -2.84497  -0.00051   0.00000  -0.00001  -0.00001  -2.84498
   D11        3.11838  -0.00369   0.00000   0.00000   0.00000   3.11838
   D12       -1.11408  -0.00152   0.00000   0.00001   0.00001  -1.11407
   D13        0.91386  -0.00155   0.00000   0.00001   0.00001   0.91386
   D14       -0.47100  -0.00239   0.00000  -0.00006  -0.00006  -0.47106
   D15        1.57973  -0.00021   0.00000  -0.00005  -0.00005   1.57969
   D16       -2.67552  -0.00025   0.00000  -0.00005  -0.00005  -2.67557
   D17        0.28641   0.00053   0.00000  -0.00002  -0.00002   0.28639
   D18        2.32583   0.00053   0.00000  -0.00002  -0.00002   2.32581
   D19       -1.83078   0.00053   0.00000  -0.00002  -0.00002  -1.83080
   D20       -2.37063  -0.00053   0.00000   0.00004   0.00004  -2.37058
   D21       -0.33121  -0.00053   0.00000   0.00005   0.00005  -0.33116
   D22        1.79537  -0.00053   0.00000   0.00004   0.00004   1.79541
   D23        1.64248   0.00090   0.00000  -0.00011  -0.00011   1.64238
   D24       -1.51302   0.00090   0.00000   0.00000   0.00000  -1.51302
   D25       -0.45527  -0.00040   0.00000  -0.00011  -0.00011  -0.45538
   D26        2.67241  -0.00040   0.00000   0.00000   0.00000   2.67241
   D27       -2.48076  -0.00050   0.00000  -0.00012  -0.00012  -2.48087
   D28        0.64692  -0.00050   0.00000  -0.00001  -0.00001   0.64691
   D29        0.00087   0.00000   0.00000  -0.00005  -0.00005   0.00082
   D30       -3.03531   0.00000   0.00000  -0.00003  -0.00003  -3.03534
   D31        3.12817   0.00000   0.00000   0.00006   0.00006   3.12823
   D32        0.09198   0.00000   0.00000   0.00008   0.00008   0.09206
   D33        0.41822   0.00000   0.00000  -0.00001  -0.00001   0.41821
   D34        2.48600   0.00000   0.00000  -0.00001  -0.00001   2.48599
   D35       -1.71655   0.00000   0.00000  -0.00002  -0.00002  -1.71657
   D36       -2.82604   0.00000   0.00000  -0.00003  -0.00003  -2.82607
   D37       -0.75826   0.00000   0.00000  -0.00003  -0.00003  -0.75829
   D38        1.32237   0.00000   0.00000  -0.00004  -0.00004   1.32233
   D39       -2.15940   0.00000   0.00000   0.00003   0.00003  -2.15938
   D40       -0.06346   0.00000   0.00000   0.00003   0.00003  -0.06343
   D41        2.03103   0.00000   0.00000   0.00003   0.00003   2.03106
   D42        1.07850   0.00000   0.00000   0.00005   0.00005   1.07855
   D43       -3.10874   0.00000   0.00000   0.00005   0.00005  -3.10869
   D44       -1.01425   0.00000   0.00000   0.00005   0.00005  -1.01420
   D45        0.95382   0.00000   0.00000   0.00000   0.00000   0.95382
   D46       -1.10919   0.00000   0.00000  -0.00001  -0.00001  -1.10920
   D47        3.06370   0.00000   0.00000   0.00001   0.00001   3.06370
   D48       -1.18183   0.00000   0.00000   0.00000   0.00000  -1.18183
   D49        3.03835   0.00000   0.00000  -0.00001  -0.00001   3.03833
   D50        0.92805   0.00000   0.00000   0.00000   0.00000   0.92805
   D51        3.07786   0.00000   0.00000   0.00000   0.00000   3.07786
   D52        1.01485   0.00000   0.00000  -0.00001  -0.00001   1.01484
   D53       -1.09545   0.00000   0.00000   0.00000   0.00000  -1.09544
   D54        3.10896   0.00000   0.00000  -0.00002  -0.00002   3.10894
   D55       -1.07281   0.00000   0.00000  -0.00001  -0.00001  -1.07282
   D56        1.00629   0.00000   0.00000   0.00000   0.00000   1.00628
   D57       -3.14095   0.00000   0.00000  -0.00002  -0.00002  -3.14096
   D58       -1.05986   0.00000   0.00000  -0.00002  -0.00002  -1.05988
   D59        1.06037   0.00000   0.00000  -0.00001  -0.00001   1.06036
         Item               Value     Threshold  Converged?
 Maximum Force            0.000005     0.000450     YES
 RMS     Force            0.000001     0.000300     YES
 Maximum Displacement     0.000405     0.001800     YES
 RMS     Displacement     0.000091     0.001200     YES
 Predicted change in Energy=-8.916421D-10
 Optimization completed.
    -- Stationary point found.
                           ----------------------------
                           !   Optimized Parameters   !
                           ! (Angstroms and Degrees)  !
 --------------------------                            --------------------------
 ! Name  Definition              Value          Derivative Info.                !
 --------------------------------------------------------------------------------
 ! R1    R(1,2)                  1.5217         -DE/DX =    0.0                 !
 ! R2    R(1,11)                 1.0899         -DE/DX =    0.0                 !
 ! R3    R(1,12)                 1.0927         -DE/DX =    0.0                 !
 ! R4    R(1,13)                 1.0958         -DE/DX =    0.0                 !
 ! R5    R(2,3)                  1.2257         -DE/DX =    0.0                 !
 ! R6    R(2,4)                  1.3858         -DE/DX =    0.0                 !
 ! R7    R(4,5)                  1.4779         -DE/DX =    0.0                 !
 ! R8    R(4,22)                 1.4708         -DE/DX =    0.0                 !
 ! R9    R(5,6)                  1.531          -DE/DX =    0.0                 !
 ! R10   R(5,14)                 1.0949         -DE/DX =    0.0                 !
 ! R11   R(5,15)                 1.0901         -DE/DX =    0.0                 !
 ! R12   R(6,7)                  1.2289         -DE/DX =    0.0                 !
 ! R13   R(6,8)                  1.3731         -DE/DX =    0.0                 !
 ! R14   R(8,9)                  1.4565         -DE/DX =    0.0                 !
 ! R15   R(8,10)                 1.4573         -DE/DX =    0.0                 !
 ! R16   R(9,16)                 1.0891         -DE/DX =    0.0                 !
 ! R17   R(9,17)                 1.0953         -DE/DX =    0.0                 !
 ! R18   R(9,18)                 1.0987         -DE/DX =    0.0                 !
 ! R19   R(10,19)                1.0965         -DE/DX =    0.0                 !
 ! R20   R(10,20)                1.0884         -DE/DX =    0.0                 !
 ! R21   R(10,21)                1.0973         -DE/DX =    0.0                 !
 ! R22   R(22,23)                1.0914         -DE/DX =    0.0                 !
 ! R23   R(22,24)                1.0921         -DE/DX =    0.0                 !
 ! R24   R(22,25)                1.5298         -DE/DX =    0.0                 !
 ! R25   R(25,26)                1.1039         -DE/DX =    0.0                 !
 ! R26   R(25,27)                1.1016         -DE/DX =    0.0                 !
 ! R27   R(25,28)                1.4123         -DE/DX =    0.0                 !
 ! R28   R(28,29)                1.4119         -DE/DX =    0.0                 !
 ! R29   R(29,30)                1.0923         -DE/DX =    0.0                 !
 ! R30   R(29,31)                1.1013         -DE/DX =    0.0                 !
 ! R31   R(29,32)                1.1015         -DE/DX =    0.0                 !
 ! A1    A(2,1,11)             107.2051         -DE/DX =    0.0                 !
 ! A2    A(2,1,12)             113.3811         -DE/DX =    0.0                 !
 ! A3    A(2,1,13)             110.526          -DE/DX =    0.0                 !
 ! A4    A(11,1,12)            109.6517         -DE/DX =    0.0                 !
 ! A5    A(11,1,13)            108.0965         -DE/DX =    0.0                 !
 ! A6    A(12,1,13)            107.8663         -DE/DX =    0.0                 !
 ! A7    A(1,2,3)              120.964          -DE/DX =    0.0                 !
 ! A8    A(1,2,4)              118.1382         -DE/DX =    0.0                 !
 ! A9    A(3,2,4)              120.886          -DE/DX =    0.0                 !
 ! A10   A(2,4,5)              113.5847         -DE/DX =   -0.0003              !
 ! A11   A(2,4,22)             121.5864         -DE/DX =    0.0009              !
 ! A12   A(5,4,22)             119.3639         -DE/DX =   -0.0002              !
 ! A13   A(4,5,6)              113.8664         -DE/DX =    0.0001              !
 ! A14   A(4,5,14)             109.8028         -DE/DX =    0.0002              !
 ! A15   A(4,5,15)             108.1036         -DE/DX =   -0.0001              !
 ! A16   A(6,5,14)             105.0817         -DE/DX =    0.0016              !
[...]
   D20       -2.02827  -0.00107   0.00454   0.02689   0.03143  -1.99683
   D21       -0.00039  -0.00058   0.00527   0.03169   0.03695   0.03656
   D22        2.14532  -0.00129   0.00423   0.01782   0.02207   2.16739
   D23        2.54010  -0.00240  -0.00123   0.03443   0.03325   2.57336
   D24       -0.46583  -0.00838   0.00000   0.00000   0.00000  -0.46583
   D25        0.33359   0.00073   0.00017   0.06272   0.06284   0.39642
   D26       -2.67234  -0.00526   0.00140   0.02828   0.02959  -2.64276
   D27       -1.61524   0.00017  -0.00030   0.05756   0.05727  -1.55796
   D28        1.66202  -0.00581   0.00093   0.02312   0.02402   1.68604
   D29       -0.73272   0.00293  -0.00906  -0.02209  -0.03103  -0.76375
   D30        3.02902   0.00328  -0.00121   0.03014   0.02881   3.05783
   D31        2.55053  -0.00327  -0.00780  -0.05824  -0.06591   2.48462
   D32        0.02908  -0.00293   0.00006  -0.00601  -0.00607   0.02301
   D33        0.64319   0.00042   0.00667   0.05490   0.06155   0.70474
   D34        2.73468   0.00022   0.00675   0.05136   0.05810   2.79278
   D35       -1.47110   0.00047   0.00677   0.05541   0.06217  -1.40893
   D36       -3.10642  -0.00020  -0.00095   0.00145   0.00052  -3.10590
   D37       -1.01492  -0.00040  -0.00087  -0.00209  -0.00294  -1.01786
   D38        1.06248  -0.00015  -0.00084   0.00196   0.00113   1.06361
   D39       -2.76249  -0.00028  -0.00579  -0.04760  -0.05336  -2.81585
   D40       -0.66681  -0.00038  -0.00587  -0.05096  -0.05681  -0.72362
   D41        1.42342  -0.00029  -0.00576  -0.04928  -0.05502   1.36840
   D42        0.96353   0.00030   0.00229   0.00408   0.00636   0.96989
   D43        3.05921   0.00020   0.00220   0.00072   0.00291   3.06211
   D44       -1.13375   0.00029   0.00232   0.00240   0.00470  -1.12905
   D45        0.77274   0.00019   0.00245  -0.00914  -0.00671   0.76603
   D46       -1.31056   0.00038   0.00228  -0.00385  -0.00160  -1.31216
   D47        2.87659   0.00026   0.00272  -0.00549  -0.00280   2.87379
   D48       -1.37308  -0.00004   0.00193  -0.01498  -0.01303  -1.38611
   D49        2.82681   0.00015   0.00176  -0.00969  -0.00792   2.81890
   D50        0.73077   0.00002   0.00220  -0.01133  -0.00911   0.72166
   D51        2.91608  -0.00044   0.00204  -0.02203  -0.01997   2.89610
   D52        0.83278  -0.00025   0.00187  -0.01674  -0.01486   0.81792
   D53       -1.26326  -0.00037   0.00230  -0.01838  -0.01606  -1.27932
   D54        3.07806  -0.00008   0.00009  -0.00448  -0.00439   3.07367
   D55       -1.10356  -0.00008   0.00064  -0.00188  -0.00124  -1.10480
   D56        0.97244   0.00008   0.00065  -0.00064   0.00001   0.97245
   D57        3.13859   0.00001   0.00083   0.00317   0.00400  -3.14060
   D58       -1.06292   0.00000   0.00077   0.00326   0.00403  -1.05890
   D59        1.05725   0.00005   0.00087   0.00341   0.00427   1.06153
         Item               Value     Threshold  Converged?
 Maximum Force            0.004743     0.000450     NO 
 RMS     Force            0.000764     0.000300     NO 
 Maximum Displacement     0.084575     0.001800     NO 
 RMS     Displacement     0.026607     0.001200     NO 
 Predicted change in Energy=-4.270883D-04
 GradGradGradGradGradGradGradGradGradGradGradGradGradGradGradGradGradGrad

                          Input orientation:                          
 ---------------------------------------------------------------------
 Center     Atomic      Atomic             Coordinates (Angstroms)
 Number     Number       Type             X           Y           Z
 ---------------------------------------------------------------------
      1          6           0        3.304891    0.479052   -0.243358
      2          6           0        2.113453    1.411982   -0.090672
      3          8           0        2.275556    2.623323   -0.070207
      4          7           0        0.829464    0.848935   -0.017409
      5          6           0       -0.161439    1.832792    0.472818
      6          6           0       -1.634469    1.429797    0.598303
      7          8           0       -2.287869    1.940753    1.498949
      8          7           0       -2.157699    0.429874   -0.206628
      9          6           0       -1.818032    0.411712   -1.632970
     10          6           0       -3.542774    0.054434    0.075234
     11          1           0        4.093244    1.042684   -0.743013
     12          1           0        3.089771   -0.431709   -0.804011
     13          1           0        3.679088    0.187514    0.744534
     14          1           0        0.104703    2.192394    1.472158
     15          1           0       -0.090288    2.709074   -0.178607
     16          1           0       -0.767753    0.663987   -1.777563
     17          1           0       -1.995282   -0.586800   -2.042980
     18          1           0       -2.438116    1.123438   -2.197486
     19          1           0       -3.734171   -0.928571   -0.364210
     20          1           0       -3.693623    0.013449    1.152932
     21          1           0       -4.258951    0.775089   -0.342578
     22          6           0        0.745403   -0.508844    0.583018
     23          1           0        1.640302   -0.726213    1.172171
     24          1           0       -0.094366   -0.532656    1.278634
     25          6           0        0.582181   -1.647318   -0.426274
     26          1           0        1.260951   -1.508998   -1.284163
     27          1           0       -0.442306   -1.676167   -0.819928
     28          8           0        0.879423   -2.843572    0.268141
     29          6           0        0.686156   -4.001420   -0.517195
     30          1           0        0.939615   -4.862152    0.105732
     31          1           0       -0.358577   -4.099545   -0.851472
     32          1           0        1.333675   -4.005034   -1.408172
 ---------------------------------------------------------------------
                    Distance matrix (angstroms):
                    1          2          3          4          5
     1  C    0.000000
     2  C    1.520919   0.000000
     3  O    2.384828   1.222311   0.000000
     4  N    2.513087   1.403929   2.289633   0.000000
     5  C    3.789586   2.381121   2.618924   1.479927   0.000000
     6  C    5.099959   3.810765   4.142428   2.605277   1.532309
     7  O    6.037480   4.709366   4.873705   3.634442   2.363537
     8  N    5.462935   4.384145   4.948089   3.022343   2.532761
     9  C    5.308474   4.340023   4.908250   3.132162   3.032839
    10  C    6.868210   5.819224   6.361864   4.444804   3.841101
    11  H    1.090338   2.116956   2.501015   3.349075   4.494980
    12  H    1.090914   2.204823   3.245710   2.714365   4.162766
    13  H    1.095879   2.155946   2.926922   3.022977   4.186934
    14  H    4.014939   2.662059   2.697628   2.132831   1.094908
    15  H    4.062564   2.558643   2.369878   2.081356   1.094206
    16  H    4.355963   3.421469   4.001973   2.383999   2.607285
    17  H    5.697939   4.968736   5.695329   3.760780   3.942924
    18  H    6.100489   5.023813   5.384577   3.937660   3.580079
    19  H    7.179443   6.304579   6.987075   4.909844   4.592402
    20  H    7.151616   6.101195   6.628621   4.746162   4.030991
    21  H    7.570283   6.409105   6.796318   5.099329   4.309665
    22  C    2.865277   2.452548   3.546624   1.486991   2.513517
    23  H    2.495444   2.527948   3.628559   2.133928   3.206847
    24  H    3.859399   3.245163   4.170864   2.107601   2.499836
    25  C    3.459488   3.437548   4.607893   2.541574   3.670491
    26  H    3.035343   3.268532   4.424837   2.711217   4.034567
    27  H    4.361064   4.074357   5.141446   2.938976   3.750050
    28  O    4.145402   4.445370   5.652487   3.703869   4.795171
    29  C    5.196863   5.614625   6.827387   4.878142   5.978007
    30  H    5.851910   6.386018   7.605789   5.713476   6.794802
    31  H    5.895282   6.088241   7.262643   5.156991   6.081548
    32  H    5.034830   5.629203   6.827328   5.074394   6.312979
                    6          7          8          9         10
     6  C    0.000000
     7  O    1.224406   0.000000
     8  N    1.386192   2.282256   0.000000
     9  C    2.459425   3.516764   1.466340   0.000000
    10  C    2.409741   2.675809   1.462475   2.453638   0.000000
    11  H    5.895395   6.822868   6.303771   6.011101   7.743057
    12  H    5.267840   6.312781   5.351180   5.048273   6.708208
    13  H    5.458804   6.264787   5.918744   5.993423   7.254031
    14  H    2.090429   2.405918   3.323140   4.063195   4.452680
    15  H    2.150497   2.869473   3.077292   3.221513   4.362478
    16  H    2.642424   3.830981   2.110591   1.089787   3.391925
    17  H    3.342638   4.361123   2.105278   1.093870   2.700508
    18  H    2.925088   3.788695   2.126777   1.099880   2.743774
    19  H    3.301073   3.714320   2.086976   2.660394   1.093637
    20  H    2.560033   2.410471   2.093054   3.381967   1.088975
    21  H    2.863880   2.938564   2.133757   2.784823   1.098554
    22  C    3.069586   4.005021   3.151624   3.511300   4.354721
    23  H    3.962553   4.759203   4.202670   4.596059   5.355087
    24  H    2.585728   3.313268   2.718420   3.512875   3.699238
    25  C    3.928350   4.981759   3.445274   3.384781   4.490292
    26  H    4.534716   5.678081   4.075227   3.645672   5.231448
    27  H    3.616580   4.676046   2.784622   2.629239   3.661857
    28  O    4.968938   5.868252   4.490542   4.635445   5.290697
    29  C    6.010637   6.943996   5.274498   5.195348   5.889378
    30  H    6.815948   7.657494   6.139744   6.200107   6.653236
    31  H    5.856908   6.762532   4.916127   4.805433   5.315396
    32  H    6.509471   7.544489   5.770772   5.430602   6.516098
                   11         12         13         14         15
    11  H    0.000000
    12  H    1.784520   0.000000
    13  H    1.765117   1.768820   0.000000
    14  H    4.705027   4.580119   4.162356   0.000000
    15  H    4.538430   4.513139   4.628029   1.740691   0.000000
    16  H    4.984275   4.126602   5.134432   3.695658   2.682909
    17  H    6.435470   5.236111   6.369322   4.948742   4.238830
    18  H    6.691836   5.909127   6.852125   4.590738   3.478852
    19  H    8.080703   6.856127   7.578348   5.277274   5.152164
    20  H    8.080175   7.074053   7.386065   4.390556   4.692911
    21  H    8.366070   7.461434   8.033649   4.933913   4.598363
    22  C    3.920923   2.725043   3.019521   2.915090   3.410784
    23  H    3.579644   2.468398   2.274735   3.311544   4.076854
    24  H    4.909667   3.806091   3.878513   2.739156   3.554206
    25  C    4.434410   2.812187   3.785265   4.309920   4.414941
    26  H    3.850430   2.176162   3.583455   4.757574   4.565110
    27  H    5.288599   3.744929   4.786098   4.529750   4.445846
    28  O    5.143351   3.442707   4.153619   5.235532   5.654361
    29  C    6.091160   4.313058   5.300638   6.531381   6.763744
    30  H    6.747802   5.007957   5.780303   7.234003   7.646241
    31  H    6.802425   5.034519   6.101544   6.723271   6.847045
    32  H    5.791124   4.027100   5.264272   6.943686   6.972715
                   16         17         18         19         20
    16  H    0.000000
    17  H    1.772496   0.000000
    18  H    1.782566   1.773383   0.000000
    19  H    3.651499   2.441068   3.041612   0.000000
    20  H    4.191863   3.668585   3.746154   1.786271   0.000000
    21  H    3.776240   3.141705   2.622494   1.782785   1.770944
    22  C    3.039329   3.796485   4.531042   4.597825   4.505835
    23  H    4.053679   4.855316   5.604399   5.593422   5.385000
    24  H    3.350484   3.827470   4.507684   4.012962   3.642620
    25  C    2.998406   3.222072   4.465027   4.376225   4.851241
    26  H    3.013461   3.468328   4.631087   5.112186   5.727571
    27  H    2.549374   2.257058   3.703878   3.406312   4.161495
    28  O    4.381902   4.324144   5.729096   5.035111   5.464263
    29  C    5.046623   4.601929   6.232866   5.385638   6.171787
    30  H    6.082772   5.613306   7.248528   6.126840   6.806982
    31  H    4.869940   4.054364   5.780639   4.656945   5.661880
    32  H    5.133441   4.813446   6.414877   6.019763   6.926845
                   21         22         23         24         25
    21  H    0.000000
    22  C    5.248693   0.000000
    23  H    6.272923   1.093249   0.000000
    24  H    4.656425   1.090716   1.748677   0.000000
    25  C    5.414021   1.530175   2.126753   2.146369   0.000000
    26  H    6.047558   2.180014   2.605807   3.059094   1.102648
    27  H    4.561064   2.177511   3.034489   2.415086   1.097893
    28  O    6.314315   2.359674   2.424750   2.703644   1.414775
    29  C    6.877472   3.662249   3.806748   3.983283   2.358151
    30  H    7.681442   4.383698   4.328307   4.603189   3.278101
    31  H    6.263701   4.021152   4.412484   4.162914   2.660683
    32  H    7.433878   4.066232   4.183641   4.616886   2.662272
                   26         27         28         29         30
    26  H    0.000000
    27  H    1.773285   0.000000
    28  O    2.082378   2.072123   0.000000
    29  C    2.670355   2.602282   1.412345   0.000000
    30  H    3.643996   3.594029   2.025997   1.092309   0.000000
    31  H    3.085616   2.425029   2.088934   1.101288   1.784127
    32  H    2.500173   2.987266   2.089346   1.101423   1.783771
                   31         32
    31  H    0.000000
    32  H    1.783974   0.000000
 Stoichiometry    C9H18N2O3
 Framework group  C1[X(C9H18N2O3)]
 Deg. of freedom    90
 Full point group                 C1      NOp   1
 Largest Abelian subgroup         C1      NOp   1
 Largest concise Abelian subgroup C1      NOp   1
                         Standard orientation:                         
 ---------------------------------------------------------------------
 Center     Atomic      Atomic             Coordinates (Angstroms)
 Number     Number       Type             X           Y           Z
 ---------------------------------------------------------------------
      1          6           0        2.665846   -2.034086    0.187100
      2          6           0        1.157335   -2.227927    0.190835
      3          8           0        0.677911   -3.344119    0.326156
      4          7           0        0.337971   -1.093475    0.078230
      5          6           0       -1.055460   -1.467708   -0.251137
      6          6           0       -2.122839   -0.377027   -0.389302
      7          8           0       -3.024034   -0.563978   -1.196808
      8          7           0       -1.988832    0.823707    0.290262
      9          6           0       -1.559166    0.805645    1.692123
     10          6           0       -3.009147    1.830000   -0.001568
     11          1           0        3.099370   -2.870811    0.735539
     12          1           0        2.996047   -1.092524    0.628147
     13          1           0        3.044728   -2.077443   -0.840284
     14          1           0       -1.101425   -2.010351   -1.201005
     15          1           0       -1.381196   -2.185118    0.508143
     16          1           0       -0.775270    0.063291    1.840626
     17          1           0       -1.165589    1.787331    1.971302
     18          1           0       -2.400819    0.576374    2.362042
     19          1           0       -2.632897    2.808724    0.309202
     20          1           0       -3.215388    1.835581   -1.070821
     21          1           0       -3.950942    1.628148    0.526732
     22          6           0        0.902278    0.045277   -0.693744
     23          1           0        1.725422   -0.290300   -1.330152
     24          1           0        0.132264    0.429836   -1.363711
     25          6           0        1.433547    1.198371    0.160401
     26          1           0        2.022221    0.815638    1.010584
     27          1           0        0.606974    1.790858    0.574048
     28          8           0        2.233548    1.993555   -0.693573
     29          6           0        2.728598    3.156372   -0.063098
     30          1           0        3.326900    3.695833   -0.800767
     31          1           0        1.914543    3.812338    0.283108
     32          1           0        3.365743    2.913802    0.801967
 ---------------------------------------------------------------------
 Rotational constants (GHZ):      0.6499351      0.5444574      0.3362813
 Standard basis: 6-31G(d,p) (6D, 7F)
 There are   300 symmetry adapted basis functions of A   symmetry.
 Integral buffers will be    131072 words long.
 Raffenetti 2 integral format.
 Two-electron integral symmetry is turned on.
   300 basis functions,   518 primitive gaussians,   300 cartesian basis functions
    55 alpha electrons       55 beta electrons
       nuclear repulsion energy       981.5862803115 Hartrees.
 NAtoms=   32 NActive=   32 NUniq=   32 SFac= 1.00D+00 NAtFMM=   60 NAOKFM=F Big=F
 One-electron integrals computed using PRISM.
 NBasis=   300 RedAO= T  NBF=   300
 NBsUse=   300 1.00D-06 NBFU=   300
 Initial guess read from the read-write file.
 B after Tr=     0.000000    0.000000    0.000000
         Rot=    1.000000    0.000000    0.000000    0.000000 Ang=   0.00 deg.
 Initial guess orbital symmetries:
       Occupied  (A) (A) (A) (A) (A) (A) (A) (A) (A) (A) (A) (A)
                 (A) (A) (A) (A) (A) (A) (A) (A) (A) (A) (A) (A)
                 (A) (A) (A) (A) (A) (A) (A) (A) (A) (A) (A) (A)
                 (A) (A) (A) (A) (A) (A) (A) (A) (A) (A) (A) (A)
                 (A) (A) (A) (A) (A) (A) (A)
       Virtual   (A) (A) (A) (A) (A) (A) (A) (A) (A) (A) (A) (A)
                 (A) (A) (A) (A) (A) (A) (A) (A) (A) (A) (A) (A)
                 (A) (A) (A) (A) (A) (A) (A) (A) (A) (A) (A) (A)
                 (A) (A) (A) (A) (A) (A) (A) (A) (A) (A) (A) (A)
                 (A) (A) (A) (A) (A) (A) (A) (A) (A) (A) (A) (A)
                 (A) (A) (A) (A) (A) (A) (A) (A) (A) (A) (A) (A)
                 (A) (A) (A) (A) (A) (A) (A) (A) (A) (A) (A) (A)
                 (A) (A) (A) (A) (A) (A) (A) (A) (A) (A) (A) (A)
                 (A) (A) (A) (A) (A) (A) (A) (A) (A) (A) (A) (A)
                 (A) (A) (A) (A) (A) (A) (A) (A) (A) (A) (A) (A)
                 (A) (A) (A) (A) (A) (A) (A) (A) (A) (A) (A) (A)
                 (A) (A) (A) (A) (A) (A) (A) (A) (A) (A) (A) (A)
                 (A) (A) (A) (A) (A) (A) (A) (A) (A) (A) (A) (A)
                 (A) (A) (A) (A) (A) (A) (A) (A) (A) (A) (A) (A)
                 (A) (A) (A) (A) (A) (A) (A) (A) (A) (A) (A) (A)
                 (A) (A) (A) (A) (A) (A) (A) (A) (A) (A) (A) (A)
                 (A) (A) (A) (A) (A) (A) (A) (A) (A) (A) (A) (A)
                 (A) (A) (A) (A) (A) (A) (A) (A) (A) (A) (A) (A)
                 (A) (A) (A) (A) (A) (A) (A) (A) (A) (A) (A) (A)
                 (A) (A) (A) (A) (A) (A) (A) (A) (A) (A) (A) (A)
                 (A) (A) (A) (A) (A)
 Harris functional with IExCor=  402 diagonalized for initial guess.
 ExpMin= 1.61D-01 ExpMax= 5.48D+03 ExpMxC= 8.25D+02 IAcc=1 IRadAn=         1 AccDes= 0.00D+00
 HarFok:  IExCor=  402 AccDes= 0.00D+00 IRadAn=         1 IDoV= 1
 ScaDFX=  1.000000  1.000000  1.000000  1.000000
 FoFCou: FMM=F IPFlag=           0 FMFlag=      100000 FMFlg1=           0
         NFxFlg=           0 DoJE=T BraDBF=F KetDBF=T FulRan=T
         Omega=  0.000000  0.000000  1.000000  0.000000  0.000000 ICntrl=     500 IOpCl=  0
         NMat0=    1 NMatS0=    1 NMatT0=    0 NMatD0=    1 NMtDS0=    0 NMtDT0=    0
         I1Cent=           4 NGrid=           0.
 Petite list used in FoFCou.
 Requested convergence on RMS density matrix=1.00D-08 within 128 cycles.
 Requested convergence on MAX density matrix=1.00D-06.
 Requested convergence on             energy=1.00D-06.
 No special actions if energy rises.
 Keep R1 ints in memory in canonical form, NReq=1033483142.
