 Entering Gaussian System, Link 0=/data/opt/apps/g09-C01/g09
 Initial command:
 /data/opt/apps/g09-C01/l1.exe /tmp/g09-tuu61186-1178326c21e64fea8x/Gau-1178460.inp -scrdir=/tmp/g09-tuu61186-1178326c21e64fea8x/
 Entering Link 1 = /data/opt/apps/g09-C01/l1.exe PID=   1178468.
  
 Copyright (c) 1988,1990,1992,1993,1995,1998,2003,2009,2011,
            Gaussian, Inc.  All Rights Reserved.
  
 This is part of the Gaussian(R) 09 program.  It is based on
 the Gaussian(R) 03 system (copyright 2003, Gaussian, Inc.),
 the Gaussian(R) 98 system (copyright 1998, Gaussian, Inc.),
 the Gaussian(R) 94 system (copyright 1995, Gaussian, Inc.),
 the Gaussian 92(TM) system (copyright 1992, Gaussian, Inc.),
 the Gaussian 90(TM) system (copyright 1990, Gaussian, Inc.),
 the Gaussian 88(TM) system (copyright 1988, Gaussian, Inc.),
 the Gaussian 86(TM) system (copyright 1986, Carnegie Mellon
 University), and the Gaussian 82(TM) system (copyright 1983,
 Carnegie Mellon University). Gaussian is a federally registered
 trademark of Gaussian, Inc.
  
 This software contains proprietary and confidential information,
 including trade secrets, belonging to Gaussian, Inc.
  
 This software is provided under written license and may be
 used, copied, transmitted, or stored only in accord with that
 written license.
  
 The following legend is applicable only to US Government
 contracts under FAR:
  
                    RESTRICTED RIGHTS LEGEND
  
 Use, reproduction and disclosure by the US Government is
 subject to restrictions as set forth in subparagraphs (a)
 and (c) of the Commercial Computer Software - Restricted
 Rights clause in FAR 52.227-19.
  
 Gaussian, Inc.
 340 Quinnipiac St., Bldg. 40, Wallingford CT 06492
  
  
 ---------------------------------------------------------------
 Warning -- This program may not be used in any manner that
 competes with the business of Gaussian, Inc. or will provide
 assistance to any competitor of Gaussian, Inc.  The licensee
 of this program is prohibited from giving any competitor of
 Gaussian, Inc. access to this program.  By using this program,
 the user acknowledges that Gaussian, Inc. is engaged in the
 business of creating and licensing software in the field of
 computational chemistry and represents and warrants to the
 licensee that it is not a competitor of Gaussian, Inc. and that
 it will not use this program in any manner prohibited above.
 ---------------------------------------------------------------
  

 Cite this work as:
 Gaussian 09, Revision C.01,
 M. J. Frisch, G. W. Trucks, H. B. Schlegel, G. E. Scuseria, 
 M. A. Robb, J. R. Cheeseman, G. Scalmani, V. Barone, B. Mennucci, 
 G. A. Petersson, H. Nakatsuji, M. Caricato, X. Li, H. P. Hratchian, 
 A. F. Izmaylov, J. Bloino, G. Zheng, J. L. Sonnenberg, M. Hada, 
 M. Ehara, K. Toyota, R. Fukuda, J. Hasegawa, M. Ishida, T. Nakajima, 
 Y. Honda, O. Kitao, H. Nakai, T. Vreven, J. A. Montgomery, Jr., 
 J. E. Peralta, F. Ogliaro, M. Bearpark, J. J. Heyd, E. Brothers, 
 K. N. Kudin, V. N. Staroverov, T. Keith, R. Kobayashi, J. Normand, 
 K. Raghavachari, A. Rendell, J. C. Burant, S. S. Iyengar, J. Tomasi, 
 M. Cossi, N. Rega, J. M. Millam, M. Klene, J. E. Knox, J. B. Cross, 
 V. Bakken, C. Adamo, J. Jaramillo, R. Gomperts, R. E. Stratmann, 
 O. Yazyev, A. J. Austin, R. Cammi, C. Pomelli, J. W. Ochterski, 
 R. L. Martin, K. Morokuma, V. G. Zakrzewski, G. A. Voth, 
 P. Salvador, J. J. Dannenberg, S. Dapprich, A. D. Daniels, 
 O. Farkas, J. B. Foresman, J. V. Ortiz, J. Cioslowski, 
 and D. J. Fox, Gaussian, Inc., Wallingford CT, 2010.
 
 ******************************************
 Gaussian 09:  EM64L-G09RevC.01 23-Sep-2011
                24-Apr-2026 
 ******************************************
 %nprocshared=8
 Will use up to    8 processors via shared memory.
 %mem=14GB
 -----------------------------------
 # opt=modredundant b3lyp/6-31g(d,p)
 -----------------------------------
 1/14=-1,18=120,19=15,26=3,38=1/1,3;
 2/9=110,12=2,17=6,18=5,40=1/2;
 3/5=1,6=6,7=101,11=2,16=1,25=1,30=1,71=1,74=-5/1,2,3;
 4//1;
 5/5=2,38=5/2;
 6/7=2,8=2,9=2,10=2,28=1/1;
 7//1,2,3,16;
 1/14=-1,18=20,19=15/3(2);
 2/9=110/2;
 99//99;
 2/9=110/2;
 3/5=1,6=6,7=101,11=2,16=1,25=1,30=1,71=1,74=-5/1,2,3;
 4/5=5,16=3/1;
 5/5=2,38=5/2;
 7//1,2,3,16;
 1/14=-1,18=20,19=15/3(-5);
 2/9=110/2;
 6/7=2,8=2,9=2,10=2,19=2,28=1/1;
 99/9=1/99;
 ---------------
 QM dihedral opt
 ---------------
 Charge =  0 Multiplicity = 1
 Symbolic Z-Matrix:
 C                     1.35594   2.85596   0.39173 
 C                     0.27974   2.00567  -0.26376 
 O                    -0.69944   2.51912  -0.79485 
 N                     0.45201   0.63547  -0.26255 
 C                    -0.67007  -0.14357  -0.7499 
 C                    -1.74108  -0.32441   0.35045 
 O                    -1.49852   0.00391   1.50675 
 N                    -2.93126  -0.89435  -0.02184 
 C                    -3.30705  -1.22723  -1.38628 
 C                    -3.98731  -1.03071   0.97244 
 H                     1.18379   3.88812   0.08797 
 H                     2.36934   2.5566    0.11008 
 H                     1.27694   2.79715   1.48271 
 H                    -1.09431   0.38012  -1.60746 
 H                    -0.31249  -1.12439  -1.08275 
 H                    -2.43886  -1.27618  -2.04113 
 H                    -3.79298  -2.2097   -1.40365 
 H                    -4.01216  -0.49355  -1.8009 
 H                    -4.35088  -2.06479   1.00082 
 H                    -3.58149  -0.75639   1.9443 
 H                    -4.83311  -0.37267   0.73449 
 C                     1.46607  -0.064     0.52306 
 H                     1.87918   0.59588   1.28623 
 H                     0.9933   -0.89032   1.06038 
 C                     2.60315  -0.5955   -0.35056 
 H                     3.11193   0.24017  -0.86092 
 H                     2.20559  -1.25695  -1.14023 
 O                     3.4953   -1.29583   0.49102 
 C                     4.60677  -1.82562  -0.2003 
 H                     5.23085  -2.34028   0.53385 
 H                     4.30139  -2.54656  -0.97502 
 H                     5.20305  -1.03529  -0.68273 
 
 The following ModRedundant input section has been read:
 D       2       4       5       6 F                                           
 D       4       5       6       8 S  36 10.000                                

 GradGradGradGradGradGradGradGradGradGradGradGradGradGradGradGradGradGrad
 Berny optimization.
 Initialization pass.
                           ----------------------------
                           !    Initial Parameters    !
                           ! (Angstroms and Degrees)  !
 --------------------------                            --------------------------
 ! Name  Definition              Value          Derivative Info.                !
 --------------------------------------------------------------------------------
 ! R1    R(1,2)                  1.5201         estimate D2E/DX2                !
 ! R2    R(1,11)                 1.0896         estimate D2E/DX2                !
 ! R3    R(1,12)                 1.0936         estimate D2E/DX2                !
 ! R4    R(1,13)                 1.0954         estimate D2E/DX2                !
 ! R5    R(2,3)                  1.2266         estimate D2E/DX2                !
 ! R6    R(2,4)                  1.381          estimate D2E/DX2                !
 ! R7    R(4,5)                  1.4503         estimate D2E/DX2                !
 ! R8    R(4,22)                 1.4611         estimate D2E/DX2                !
 ! R9    R(5,6)                  1.5461         estimate D2E/DX2                !
 ! R10   R(5,14)                 1.0907         estimate D2E/DX2                !
 ! R11   R(5,15)                 1.0957         estimate D2E/DX2                !
 ! R12   R(6,7)                  1.2262         estimate D2E/DX2                !
 ! R13   R(6,8)                  1.3711         estimate D2E/DX2                !
 ! R14   R(8,9)                  1.4539         estimate D2E/DX2                !
 ! R15   R(8,10)                 1.4569         estimate D2E/DX2                !
 ! R16   R(9,16)                 1.0886         estimate D2E/DX2                !
 ! R17   R(9,17)                 1.0962         estimate D2E/DX2                !
 ! R18   R(9,18)                 1.0988         estimate D2E/DX2                !
 ! R19   R(10,19)                1.0965         estimate D2E/DX2                !
 ! R20   R(10,20)                1.0883         estimate D2E/DX2                !
 ! R21   R(10,21)                1.0977         estimate D2E/DX2                !
 ! R22   R(22,23)                1.0902         estimate D2E/DX2                !
 ! R23   R(22,24)                1.0932         estimate D2E/DX2                !
 ! R24   R(22,25)                1.5293         estimate D2E/DX2                !
 ! R25   R(25,26)                1.1035         estimate D2E/DX2                !
 ! R26   R(25,27)                1.1042         estimate D2E/DX2                !
 ! R27   R(25,28)                1.4123         estimate D2E/DX2                !
 ! R28   R(28,29)                1.4121         estimate D2E/DX2                !
 ! R29   R(29,30)                1.0924         estimate D2E/DX2                !
 ! R30   R(29,31)                1.1015         estimate D2E/DX2                !
 ! R31   R(29,32)                1.1013         estimate D2E/DX2                !
 ! A1    A(2,1,11)             107.3253         estimate D2E/DX2                !
 ! A2    A(2,1,12)             113.071          estimate D2E/DX2                !
 ! A3    A(2,1,13)             110.3874         estimate D2E/DX2                !
 ! A4    A(11,1,12)            109.5063         estimate D2E/DX2                !
 ! A5    A(11,1,13)            108.4882         estimate D2E/DX2                !
 ! A6    A(12,1,13)            107.9777         estimate D2E/DX2                !
 ! A7    A(1,2,3)              121.1796         estimate D2E/DX2                !
 ! A8    A(1,2,4)              117.7934         estimate D2E/DX2                !
 ! A9    A(3,2,4)              121.0174         estimate D2E/DX2                !
 ! A10   A(2,4,5)              115.8578         estimate D2E/DX2                !
 ! A11   A(2,4,22)             124.1974         estimate D2E/DX2                !
 ! A12   A(5,4,22)             117.419          estimate D2E/DX2                !
 ! A13   A(4,5,6)              111.0757         estimate D2E/DX2                !
 ! A14   A(4,5,14)             107.8923         estimate D2E/DX2                !
 ! A15   A(4,5,15)             109.2932         estimate D2E/DX2                !
 ! A16   A(6,5,14)             110.2595         estimate D2E/DX2                !
 ! A17   A(6,5,15)             109.7268         estimate D2E/DX2                !
 ! A18   A(14,5,15)            108.535          estimate D2E/DX2                !
 ! A19   A(5,6,7)              120.1825         estimate D2E/DX2                !
 ! A20   A(5,6,8)              117.1728         estimate D2E/DX2                !
 ! A21   A(7,6,8)              122.6175         estimate D2E/DX2                !
 ! A22   A(6,8,9)              125.0548         estimate D2E/DX2                !
 ! A23   A(6,8,10)             118.8703         estimate D2E/DX2                !
 ! A24   A(9,8,10)             115.576          estimate D2E/DX2                !
 ! A25   A(8,9,16)             111.6368         estimate D2E/DX2                !
 ! A26   A(8,9,17)             109.5519         estimate D2E/DX2                !
 ! A27   A(8,9,18)             111.5376         estimate D2E/DX2                !
 ! A28   A(16,9,17)            107.6807         estimate D2E/DX2                !
 ! A29   A(16,9,18)            108.35           estimate D2E/DX2                !
 ! A30   A(17,9,18)            107.9375         estimate D2E/DX2                !
 ! A31   A(8,10,19)            110.2608         estimate D2E/DX2                !
 ! A32   A(8,10,20)            108.3943         estimate D2E/DX2                !
 ! A33   A(8,10,21)            110.7609         estimate D2E/DX2                !
 ! A34   A(19,10,20)           109.7696         estimate D2E/DX2                !
 ! A35   A(19,10,21)           108.3887         estimate D2E/DX2                !
 ! A36   A(20,10,21)           109.2552         estimate D2E/DX2                !
 ! A37   A(4,22,23)            110.4645         estimate D2E/DX2                !
 ! A38   A(4,22,24)            109.0265         estimate D2E/DX2                !
 ! A39   A(4,22,25)            112.0415         estimate D2E/DX2                !
 ! A40   A(23,22,24)           106.1004         estimate D2E/DX2                !
 ! A41   A(23,22,25)           109.1789         estimate D2E/DX2                !
 ! A42   A(24,22,25)           109.8551         estimate D2E/DX2                !
 ! A43   A(22,25,26)           110.1106         estimate D2E/DX2                !
 ! A44   A(22,25,27)           110.4289         estimate D2E/DX2                !
 ! A45   A(22,25,28)           107.5551         estimate D2E/DX2                !
 ! A46   A(26,25,27)           106.7928         estimate D2E/DX2                !
 ! A47   A(26,25,28)           111.0918         estimate D2E/DX2                !
 ! A48   A(27,25,28)           110.8892         estimate D2E/DX2                !
 ! A49   A(25,28,29)           113.0495         estimate D2E/DX2                !
 ! A50   A(28,29,30)           107.3026         estimate D2E/DX2                !
 ! A51   A(28,29,31)           111.8203         estimate D2E/DX2                !
 ! A52   A(28,29,32)           111.8008         estimate D2E/DX2                !
 ! A53   A(30,29,31)           108.8276         estimate D2E/DX2                !
 ! A54   A(30,29,32)           108.8545         estimate D2E/DX2                !
 ! A55   A(31,29,32)           108.162          estimate D2E/DX2                !
 ! D1    D(11,1,2,3)           -12.4462         estimate D2E/DX2                !
 ! D2    D(11,1,2,4)           166.4423         estimate D2E/DX2                !
 ! D3    D(12,1,2,3)          -133.314          estimate D2E/DX2                !
 ! D4    D(12,1,2,4)            45.5745         estimate D2E/DX2                !
 ! D5    D(13,1,2,3)           105.6085         estimate D2E/DX2                !
 ! D6    D(13,1,2,4)           -75.503          estimate D2E/DX2                !
 ! D7    D(1,2,4,5)            172.7505         estimate D2E/DX2                !
 ! D8    D(1,2,4,22)            11.301          estimate D2E/DX2                !
 ! D9    D(3,2,4,5)             -8.3592         estimate D2E/DX2                !
 ! D10   D(3,2,4,22)          -169.8086         estimate D2E/DX2                !
 ! D11   D(2,4,5,6)            -81.3301         Frozen                          !
 ! D12   D(2,4,5,14)            39.6256         estimate D2E/DX2                !
 ! D13   D(2,4,5,15)           157.4608         estimate D2E/DX2                !
 ! D14   D(22,4,5,6)            81.4262         estimate D2E/DX2                !
 ! D15   D(22,4,5,14)         -157.6182         estimate D2E/DX2                !
 ! D16   D(22,4,5,15)          -39.783          estimate D2E/DX2                !
 ! D17   D(2,4,22,23)           14.806          estimate D2E/DX2                !
 ! D18   D(2,4,22,24)          131.0245         estimate D2E/DX2                !
 ! D19   D(2,4,22,25)         -107.1579         estimate D2E/DX2                !
 ! D20   D(5,4,22,23)         -146.3786         estimate D2E/DX2                !
 ! D21   D(5,4,22,24)          -30.1601         estimate D2E/DX2                !
 ! D22   D(5,4,22,25)           91.6575         estimate D2E/DX2                !
 ! D23   D(4,5,6,7)             -9.9355         estimate D2E/DX2                !
 ! D24   D(4,5,6,8)            171.9135         Scan                            !
 ! D25   D(14,5,6,7)          -129.4875         estimate D2E/DX2                !
 ! D26   D(14,5,6,8)            52.3615         estimate D2E/DX2                !
 ! D27   D(15,5,6,7)           111.0189         estimate D2E/DX2                !
 ! D28   D(15,5,6,8)           -67.1322         estimate D2E/DX2                !
 ! D29   D(5,6,8,9)             -5.9194         estimate D2E/DX2                !
 ! D30   D(5,6,8,10)          -177.4391         estimate D2E/DX2                !
 ! D31   D(7,6,8,9)            175.9782         estimate D2E/DX2                !
 ! D32   D(7,6,8,10)             4.4585         estimate D2E/DX2                !
 ! D33   D(6,8,9,16)            18.3927         estimate D2E/DX2                !
 ! D34   D(6,8,9,17)           137.5756         estimate D2E/DX2                !
 ! D35   D(6,8,9,18)          -102.9839         estimate D2E/DX2                !
 ! D36   D(10,8,9,16)         -169.8386         estimate D2E/DX2                !
 ! D37   D(10,8,9,17)          -50.6557         estimate D2E/DX2                !
 ! D38   D(10,8,9,18)           68.7848         estimate D2E/DX2                !
 ! D39   D(6,8,10,19)         -127.9839         estimate D2E/DX2                !
 ! D40   D(6,8,10,20)           -7.8042         estimate D2E/DX2                !
 ! D41   D(6,8,10,21)          112.0457         estimate D2E/DX2                !
 ! D42   D(9,8,10,19)           59.7072         estimate D2E/DX2                !
 ! D43   D(9,8,10,20)          179.887          estimate D2E/DX2                !
 ! D44   D(9,8,10,21)          -60.2632         estimate D2E/DX2                !
 ! D45   D(4,22,25,26)          61.1295         estimate D2E/DX2                !
 ! D46   D(4,22,25,27)         -56.5614         estimate D2E/DX2                !
 ! D47   D(4,22,25,28)        -177.6868         estimate D2E/DX2                !
 ! D48   D(23,22,25,26)        -61.5666         estimate D2E/DX2                !
 ! D49   D(23,22,25,27)       -179.2575         estimate D2E/DX2                !
 ! D50   D(23,22,25,28)         59.6171         estimate D2E/DX2                !
 ! D51   D(24,22,25,26)       -177.5287         estimate D2E/DX2                !
 ! D52   D(24,22,25,27)         64.7803         estimate D2E/DX2                !
 ! D53   D(24,22,25,28)        -56.345          estimate D2E/DX2                !
 ! D54   D(22,25,28,29)       -179.2599         estimate D2E/DX2                !
 ! D55   D(26,25,28,29)        -58.6931         estimate D2E/DX2                !
 ! D56   D(27,25,28,29)         59.9039         estimate D2E/DX2                !
 ! D57   D(25,28,29,30)        179.8195         estimate D2E/DX2                !
 ! D58   D(25,28,29,31)        -60.9169         estimate D2E/DX2                !
 ! D59   D(25,28,29,32)         60.5342         estimate D2E/DX2                !
 --------------------------------------------------------------------------------
 Trust Radius=3.00D-01 FncErr=1.00D-07 GrdErr=1.00D-06
 Number of optimizations in scan=  37
 Number of steps in this run=    155 maximum allowed number of steps=    192.
 GradGradGradGradGradGradGradGradGradGradGradGradGradGradGradGradGradGrad

                          Input orientation:                          
 ---------------------------------------------------------------------
 Center     Atomic      Atomic             Coordinates (Angstroms)
 Number     Number       Type             X           Y           Z
 ---------------------------------------------------------------------
      1          6           0        1.355937    2.855957    0.391731
      2          6           0        0.279742    2.005670   -0.263755
      3          8           0       -0.699444    2.519124   -0.794851
      4          7           0        0.452014    0.635467   -0.262547
      5          6           0       -0.670069   -0.143569   -0.749904
      6          6           0       -1.741076   -0.324409    0.350445
      7          8           0       -1.498524    0.003913    1.506752
      8          7           0       -2.931258   -0.894347   -0.021839
      9          6           0       -3.307045   -1.227232   -1.386276
     10          6           0       -3.987307   -1.030713    0.972439
     11          1           0        1.183794    3.888118    0.087970
     12          1           0        2.369335    2.556596    0.110075
     13          1           0        1.276935    2.797150    1.482708
     14          1           0       -1.094314    0.380119   -1.607460
     15          1           0       -0.312489   -1.124394   -1.082749
     16          1           0       -2.438858   -1.276181   -2.041131
     17          1           0       -3.792984   -2.209698   -1.403648
     18          1           0       -4.012157   -0.493554   -1.800897
     19          1           0       -4.350879   -2.064794    1.000822
     20          1           0       -3.581486   -0.756385    1.944297
     21          1           0       -4.833106   -0.372674    0.734486
     22          6           0        1.466068   -0.064001    0.523056
     23          1           0        1.879182    0.595880    1.286234
     24          1           0        0.993304   -0.890319    1.060377
     25          6           0        2.603145   -0.595499   -0.350562
     26          1           0        3.111926    0.240171   -0.860915
     27          1           0        2.205585   -1.256948   -1.140234
     28          8           0        3.495302   -1.295827    0.491023
     29          6           0        4.606765   -1.825619   -0.200296
     30          1           0        5.230851   -2.340278    0.533851
     31          1           0        4.301387   -2.546557   -0.975021
     32          1           0        5.203051   -1.035286   -0.682732
 ---------------------------------------------------------------------
                    Distance matrix (angstroms):
                    1          2          3          4          5
     1  C    0.000000
     2  C    1.520147   0.000000
     3  O    2.397087   1.226582   0.000000
     4  N    2.485102   1.380991   2.270984   0.000000
     5  C    3.795417   2.399523   2.663234   1.450339   0.000000
     6  C    4.439361   3.144871   3.237650   2.471187   1.546133
     7  O    4.186332   3.209978   3.501741   2.708113   2.408440
     8  N    5.711030   4.333491   4.150943   3.720860   2.491329
     9  C    6.448034   4.957494   4.602668   4.343149   2.921119
    10  C    6.632773   5.381032   5.151184   4.899890   3.841557
    11  H    1.089615   2.117695   2.490001   3.352328   4.515899
    12  H    1.093582   2.193095   3.199641   2.739654   4.155530
    13  H    1.095413   2.161242   3.028308   2.898152   4.174112
    14  H    4.016251   2.517139   2.321982   2.065218   1.090704
    15  H    4.560804   3.289193   3.675302   2.086698   1.095749
    16  H    6.115051   4.617402   4.356962   3.895497   2.465500
    17  H    7.442824   5.971246   5.683518   5.236132   3.801167
    18  H    6.696512   5.198973   4.589382   4.854898   3.520885
    19  H    7.559929   6.293686   6.129415   5.652901   4.506053
    20  H    6.311705   5.235793   5.151510   4.803804   4.013803
    21  H    6.988976   5.726624   5.271483   5.472012   4.425695
    22  C    2.924984   2.511967   3.619234   1.461073   2.487939
    23  H    2.486336   2.635940   3.831331   2.106442   3.345344
    24  H    3.822718   3.263319   4.234568   2.090729   2.569351
    25  C    3.744206   3.488813   4.561290   2.479998   3.328310
    26  H    3.390421   3.390406   4.441231   2.754893   3.803034
    27  H    4.470437   3.888671   4.776736   2.725175   3.108272
    28  O    4.671622   4.670053   5.814053   3.682304   4.496433
    29  C    5.730230   5.779786   6.883759   4.829366   5.565639
    30  H    6.483519   6.636032   7.781236   5.685648   6.426073
    31  H    6.303241   6.115742   7.120526   5.044856   5.526337
    32  H    5.576426   5.801890   6.890998   5.053744   5.940809
                    6          7          8          9         10
     6  C    0.000000
     7  O    1.226243   0.000000
     8  N    1.371116   2.279515   0.000000
     9  C    2.506701   3.627131   1.453863   0.000000
    10  C    2.435425   2.747723   1.456854   2.462704   0.000000
    11  H    5.135089   4.928978   6.310125   6.964757   7.191486
    12  H    5.025281   4.840168   6.326349   6.984104   7.349786
    13  H    4.487153   3.937756   5.796525   6.740890   6.528794
    14  H    2.179003   3.162789   2.740953   2.743844   4.125013
    15  H    2.175978   3.063539   2.834855   3.011656   4.211515
    16  H    2.666909   3.887202   2.113243   1.088568   3.396992
    17  H    3.292641   4.316833   2.093350   1.096211   2.659616
    18  H    3.132841   4.184061   2.119912   1.098807   2.824987
    19  H    3.203592   3.559697   2.105019   2.736665   1.096501
    20  H    2.472666   2.260139   2.075457   3.374868   1.088326
    21  H    3.116162   3.443494   2.112154   2.748957   1.097731
    22  C    3.222325   3.124272   4.508088   5.270793   5.556598
    23  H    3.850831   3.436270   5.203092   6.112528   6.095897
    24  H    2.881161   2.684792   4.071043   4.959095   4.983365
    25  C    4.408759   4.542312   5.552205   6.033418   6.736008
    26  H    5.033664   5.188248   6.205744   6.605487   7.441468
    27  H    4.320635   4.724059   5.269672   5.518198   6.547250
    28  O    5.327576   5.259214   6.459480   7.056974   7.502765
    29  C    6.546146   6.598163   7.597428   8.024525   8.710066
    30  H    7.259830   7.192097   8.307799   8.821645   9.321038
    31  H    6.573139   6.804635   7.479940   7.732916   8.648285
    32  H    7.056465   7.126351   8.162330   8.541285   9.338217
                   11         12         13         14         15
    11  H    0.000000
    12  H    1.782960   0.000000
    13  H    1.773184   1.770685   0.000000
    14  H    4.513349   4.436648   4.584103   0.000000
    15  H    5.360478   4.707940   4.948368   1.774861   0.000000
    16  H    6.657827   6.514337   6.543438   2.176970   2.337302
    17  H    8.011030   7.936189   7.687890   3.745866   3.659878
    18  H    7.054415   7.326573   7.041682   3.051972   3.821157
    19  H    8.179429   8.204386   7.452718   4.835902   4.640497
    20  H    6.908347   7.053544   6.036964   4.482482   4.470434
    21  H    7.401042   7.800363   6.923888   4.475486   4.929848
    22  C    3.986003   2.802494   3.023721   3.360342   2.620364
    23  H    3.571867   2.338377   2.290610   4.154720   3.657163
    24  H    4.880094   3.831156   3.722397   3.617944   2.520491
    25  C    4.723313   3.194144   4.077963   4.025273   3.052335
    26  H    4.233863   2.619177   3.924016   4.274268   3.692948
    27  H    5.387416   4.016616   4.917105   3.713169   2.522216
    28  O    5.690238   4.031636   4.759942   5.317612   4.123763
    29  C    6.666830   4.930135   5.940561   6.272774   5.046732
    30  H    7.441129   5.687463   6.551866   7.210651   5.900880
    31  H    7.228719   5.563491   6.613845   6.170818   4.829286
    32  H    6.402212   4.643286   5.898397   6.520376   5.530745
                   16         17         18         19         20
    16  H    0.000000
    17  H    1.763943   0.000000
    18  H    1.773552   1.775104   0.000000
    19  H    3.678480   2.472594   3.230040   0.000000
    20  H    4.178447   3.655897   3.779026   1.787189   0.000000
    21  H    3.775288   3.004684   2.667721   1.779536   1.782535
    22  C    4.826270   5.997819   5.966257   6.169952   5.289341
    23  H    5.763804   6.876060   6.739816   6.780436   5.663971
    24  H    4.641980   5.542629   5.779183   5.472041   4.661326
    25  C    5.361263   6.680202   6.773189   7.234882   6.598630
    26  H    5.873963   7.346714   7.223190   8.029470   7.325579
    27  H    4.731050   6.079470   6.299171   6.944347   6.576860
    28  O    6.451856   7.585780   7.890404   7.900238   7.244579
    29  C    7.302832   8.494195   8.866912   9.040978   8.531705
    30  H    8.160102   9.230414   9.710542   9.597057   9.063959
    31  H    6.941279   8.112708   8.603017   8.888068   8.594581
    32  H    7.765440   9.100967   9.298593   9.755605   9.173176
                   21         22         23         24         25
    21  H    0.000000
    22  C    6.310275   0.000000
    23  H    6.804214   1.090205   0.000000
    24  H    5.858431   1.093170   1.744872   0.000000
    25  C    7.518298   1.529262   2.150025   2.160846   0.000000
    26  H    8.126772   2.171807   2.501287   3.075375   1.103478
    27  H    7.337553   2.176360   3.070384   2.539041   1.104152
    28  O    8.382951   2.374071   2.612041   2.597806   1.412327
    29  C    9.596668   3.672943   3.938672   3.939693   2.355901
    30  H   10.256459   4.399448   4.518937   4.509591   3.275863
    31  H    9.543958   4.055410   4.566756   4.222485   2.660940
    32  H   10.157362   4.045042   4.193523   4.558664   2.657680
                   26         27         28         29         30
    26  H    0.000000
    27  H    1.772241   0.000000
    28  O    2.081827   2.079875   0.000000
    29  C    2.634094   2.640556   1.412073   0.000000
    30  H    3.618554   3.623313   2.026041   1.092396   0.000000
    31  H    3.032110   2.466328   2.088871   1.101456   1.784138
    32  H    2.455879   3.040270   2.088538   1.101330   1.784335
                   31         32
    31  H    0.000000
    32  H    1.783920   0.000000
 Stoichiometry    C9H18N2O3
 Framework group  C1[X(C9H18N2O3)]
 Deg. of freedom    90
 Full point group                 C1      NOp   1
 Largest Abelian subgroup         C1      NOp   1
 Largest concise Abelian subgroup C1      NOp   1
                         Standard orientation:                         
 ---------------------------------------------------------------------
 Center     Atomic      Atomic             Coordinates (Angstroms)
 Number     Number       Type             X           Y           Z
 ---------------------------------------------------------------------
      1          6           0        1.355937    2.855957    0.391731
      2          6           0        0.279742    2.005670   -0.263755
      3          8           0       -0.699444    2.519124   -0.794851
      4          7           0        0.452014    0.635467   -0.262547
      5          6           0       -0.670069   -0.143569   -0.749904
      6          6           0       -1.741076   -0.324409    0.350445
      7          8           0       -1.498524    0.003913    1.506752
      8          7           0       -2.931258   -0.894347   -0.021839
      9          6           0       -3.307045   -1.227232   -1.386276
     10          6           0       -3.987307   -1.030713    0.972439
     11          1           0        1.183794    3.888118    0.087970
     12          1           0        2.369335    2.556596    0.110075
     13          1           0        1.276935    2.797150    1.482708
     14          1           0       -1.094314    0.380119   -1.607460
     15          1           0       -0.312489   -1.124394   -1.082749
     16          1           0       -2.438858   -1.276181   -2.041131
     17          1           0       -3.792984   -2.209698   -1.403648
     18          1           0       -4.012157   -0.493554   -1.800897
     19          1           0       -4.350879   -2.064794    1.000822
     20          1           0       -3.581486   -0.756385    1.944297
     21          1           0       -4.833106   -0.372674    0.734486
     22          6           0        1.466068   -0.064001    0.523056
     23          1           0        1.879182    0.595880    1.286234
     24          1           0        0.993304   -0.890319    1.060377
     25          6           0        2.603145   -0.595499   -0.350562
     26          1           0        3.111926    0.240171   -0.860915
     27          1           0        2.205585   -1.256948   -1.140234
     28          8           0        3.495302   -1.295827    0.491023
     29          6           0        4.606765   -1.825619   -0.200296
     30          1           0        5.230851   -2.340278    0.533851
     31          1           0        4.301387   -2.546557   -0.975021
     32          1           0        5.203051   -1.035286   -0.682732
 ---------------------------------------------------------------------
 Rotational constants (GHZ):      0.9093744      0.3522525      0.2916231
 Standard basis: 6-31G(d,p) (6D, 7F)
 There are   300 symmetry adapted basis functions of A   symmetry.
 Integral buffers will be    131072 words long.
 Raffenetti 2 integral format.
 Two-electron integral symmetry is turned on.
   300 basis functions,   518 primitive gaussians,   300 cartesian basis functions
    55 alpha electrons       55 beta electrons
       nuclear repulsion energy       959.9456351122 Hartrees.
 NAtoms=   32 NActive=   32 NUniq=   32 SFac= 1.00D+00 NAtFMM=   60 NAOKFM=F Big=F
 One-electron integrals computed using PRISM.
 NBasis=   300 RedAO= T  NBF=   300
 NBsUse=   300 1.00D-06 NBFU=   300
 Harris functional with IExCor=  402 diagonalized for initial guess.
 ExpMin= 1.61D-01 ExpMax= 5.48D+03 ExpMxC= 8.25D+02 IAcc=1 IRadAn=         1 AccDes= 0.00D+00
 HarFok:  IExCor=  402 AccDes= 0.00D+00 IRadAn=         1 IDoV= 1
 ScaDFX=  1.000000  1.000000  1.000000  1.000000
 FoFCou: FMM=F IPFlag=           0 FMFlag=      100000 FMFlg1=           0
         NFxFlg=           0 DoJE=T BraDBF=F KetDBF=T FulRan=T
         Omega=  0.000000  0.000000  1.000000  0.000000  0.000000 ICntrl=     500 IOpCl=  0
         NMat0=    1 NMatS0=    1 NMatT0=    0 NMatD0=    1 NMtDS0=    0 NMtDT0=    0
         I1Cent=           4 NGrid=           0.
 Petite list used in FoFCou.
 Initial guess orbital symmetries:
       Occupied  (A) (A) (A) (A) (A) (A) (A) (A) (A) (A) (A) (A)
                 (A) (A) (A) (A) (A) (A) (A) (A) (A) (A) (A) (A)
                 (A) (A) (A) (A) (A) (A) (A) (A) (A) (A) (A) (A)
                 (A) (A) (A) (A) (A) (A) (A) (A) (A) (A) (A) (A)
                 (A) (A) (A) (A) (A) (A) (A)
       Virtual   (A) (A) (A) (A) (A) (A) (A) (A) (A) (A) (A) (A)
                 (A) (A) (A) (A) (A) (A) (A) (A) (A) (A) (A) (A)
                 (A) (A) (A) (A) (A) (A) (A) (A) (A) (A) (A) (A)
                 (A) (A) (A) (A) (A) (A) (A) (A) (A) (A) (A) (A)
                 (A) (A) (A) (A) (A) (A) (A) (A) (A) (A) (A) (A)
                 (A) (A) (A) (A) (A) (A) (A) (A) (A) (A) (A) (A)
                 (A) (A) (A) (A) (A) (A) (A) (A) (A) (A) (A) (A)
                 (A) (A) (A) (A) (A) (A) (A) (A) (A) (A) (A) (A)
                 (A) (A) (A) (A) (A) (A) (A) (A) (A) (A) (A) (A)
                 (A) (A) (A) (A) (A) (A) (A) (A) (A) (A) (A) (A)
                 (A) (A) (A) (A) (A) (A) (A) (A) (A) (A) (A) (A)
                 (A) (A) (A) (A) (A) (A) (A) (A) (A) (A) (A) (A)
                 (A) (A) (A) (A) (A) (A) (A) (A) (A) (A) (A) (A)
                 (A) (A) (A) (A) (A) (A) (A) (A) (A) (A) (A) (A)
                 (A) (A) (A) (A) (A) (A) (A) (A) (A) (A) (A) (A)
                 (A) (A) (A) (A) (A) (A) (A) (A) (A) (A) (A) (A)
                 (A) (A) (A) (A) (A) (A) (A) (A) (A) (A) (A) (A)
                 (A) (A) (A) (A) (A) (A) (A) (A) (A) (A) (A) (A)
                 (A) (A) (A) (A) (A) (A) (A) (A) (A) (A) (A) (A)
                 (A) (A) (A) (A) (A) (A) (A) (A) (A) (A) (A) (A)
                 (A) (A) (A) (A) (A)
 The electronic state of the initial guess is 1-A.
 Requested convergence on RMS density matrix=1.00D-08 within 128 cycles.
 Requested convergence on MAX density matrix=1.00D-06.
 Requested convergence on             energy=1.00D-06.
 No special actions if energy rises.
 Keep R1 ints in memory in canonical form, NReq=1033484950.
 Integral accuracy reduced to 1.0D-05 until final iterations.
 Initial convergence to 1.0D-05 achieved.  Increase integral accuracy.
 SCF Done:  E(RB3LYP) =  -688.997489938     A.U. after   14 cycles
             Convg  =    0.6310D-08             -V/T =  2.0093

 **********************************************************************

            Population analysis using the SCF density.

 **********************************************************************

 Orbital symmetries:
       Occupied  (A) (A) (A) (A) (A) (A) (A) (A) (A) (A) (A) (A)
                 (A) (A) (A) (A) (A) (A) (A) (A) (A) (A) (A) (A)
                 (A) (A) (A) (A) (A) (A) (A) (A) (A) (A) (A) (A)
                 (A) (A) (A) (A) (A) (A) (A) (A) (A) (A) (A) (A)
                 (A) (A) (A) (A) (A) (A) (A)
       Virtual   (A) (A) (A) (A) (A) (A) (A) (A) (A) (A) (A) (A)
                 (A) (A) (A) (A) (A) (A) (A) (A) (A) (A) (A) (A)
                 (A) (A) (A) (A) (A) (A) (A) (A) (A) (A) (A) (A)
                 (A) (A) (A) (A) (A) (A) (A) (A) (A) (A) (A) (A)
                 (A) (A) (A) (A) (A) (A) (A) (A) (A) (A) (A) (A)
                 (A) (A) (A) (A) (A) (A) (A) (A) (A) (A) (A) (A)
                 (A) (A) (A) (A) (A) (A) (A) (A) (A) (A) (A) (A)
                 (A) (A) (A) (A) (A) (A) (A) (A) (A) (A) (A) (A)
                 (A) (A) (A) (A) (A) (A) (A) (A) (A) (A) (A) (A)
                 (A) (A) (A) (A) (A) (A) (A) (A) (A) (A) (A) (A)
                 (A) (A) (A) (A) (A) (A) (A) (A) (A) (A) (A) (A)
                 (A) (A) (A) (A) (A) (A) (A) (A) (A) (A) (A) (A)
                 (A) (A) (A) (A) (A) (A) (A) (A) (A) (A) (A) (A)
                 (A) (A) (A) (A) (A) (A) (A) (A) (A) (A) (A) (A)
                 (A) (A) (A) (A) (A) (A) (A) (A) (A) (A) (A) (A)
                 (A) (A) (A) (A) (A) (A) (A) (A) (A) (A) (A) (A)
                 (A) (A) (A) (A) (A) (A) (A) (A) (A) (A) (A) (A)
                 (A) (A) (A) (A) (A) (A) (A) (A) (A) (A) (A) (A)
                 (A) (A) (A) (A) (A) (A) (A) (A) (A) (A) (A) (A)
                 (A) (A) (A) (A) (A) (A) (A) (A) (A) (A) (A) (A)
                 (A) (A) (A) (A) (A)
 The electronic state is 1-A.
 Alpha  occ. eigenvalues --  -19.15427 -19.10803 -19.10153 -14.36644 -14.35774
 Alpha  occ. eigenvalues --  -10.28265 -10.27804 -10.23682 -10.23252 -10.22946
 Alpha  occ. eigenvalues --  -10.22641 -10.21910 -10.21215 -10.18361  -1.03835
 Alpha  occ. eigenvalues --   -1.03250  -1.01988  -0.93317  -0.92641  -0.77029
 Alpha  occ. eigenvalues --   -0.75083  -0.72816  -0.71367  -0.68363  -0.66727
 Alpha  occ. eigenvalues --   -0.62105  -0.56293  -0.53179  -0.50749  -0.50163
 Alpha  occ. eigenvalues --   -0.49405  -0.48060  -0.47088  -0.46998  -0.46039
 Alpha  occ. eigenvalues --   -0.44926  -0.43211  -0.42263  -0.41524  -0.40823
 Alpha  occ. eigenvalues --   -0.40701  -0.40356  -0.38935  -0.38480  -0.38184
 Alpha  occ. eigenvalues --   -0.37249  -0.35793  -0.35409  -0.34140  -0.32440
 Alpha  occ. eigenvalues --   -0.26129  -0.25336  -0.24306  -0.23862  -0.23092
 Alpha virt. eigenvalues --    0.02890   0.03408   0.07623   0.08649   0.09419
 Alpha virt. eigenvalues --    0.10784   0.11808   0.13134   0.13968   0.14346
 Alpha virt. eigenvalues --    0.14617   0.15819   0.15900   0.16334   0.16411
 Alpha virt. eigenvalues --    0.16828   0.17403   0.17724   0.17952   0.19113
 Alpha virt. eigenvalues --    0.20045   0.20755   0.21758   0.22178   0.23302
 Alpha virt. eigenvalues --    0.24076   0.26105   0.28017   0.29062   0.33134
 Alpha virt. eigenvalues --    0.35800   0.38854   0.39943   0.48548   0.49279
 Alpha virt. eigenvalues --    0.49803   0.50155   0.50754   0.52033   0.53381
 Alpha virt. eigenvalues --    0.54734   0.55983   0.56107   0.56846   0.57423
 Alpha virt. eigenvalues --    0.59177   0.60513   0.62224   0.63969   0.64205
 Alpha virt. eigenvalues --    0.65313   0.68039   0.69101   0.70840   0.71406
 Alpha virt. eigenvalues --    0.72079   0.74572   0.74726   0.76996   0.77645
 Alpha virt. eigenvalues --    0.77858   0.79202   0.79876   0.81130   0.82715
 Alpha virt. eigenvalues --    0.83690   0.84014   0.85235   0.85417   0.85915
 Alpha virt. eigenvalues --    0.86973   0.87631   0.88271   0.89795   0.90447
 Alpha virt. eigenvalues --    0.90801   0.91556   0.92593   0.93639   0.93866
 Alpha virt. eigenvalues --    0.95243   0.96508   0.97247   0.97677   0.99217
 Alpha virt. eigenvalues --    1.00996   1.03268   1.05140   1.06367   1.10874
 Alpha virt. eigenvalues --    1.13631   1.14913   1.17224   1.19949   1.21312
 Alpha virt. eigenvalues --    1.26867   1.28070   1.29295   1.31262   1.32238
 Alpha virt. eigenvalues --    1.34888   1.36042   1.36942   1.37826   1.39173
 Alpha virt. eigenvalues --    1.39417   1.44278   1.46937   1.51282   1.54268
 Alpha virt. eigenvalues --    1.54976   1.57596   1.61795   1.64341   1.65165
 Alpha virt. eigenvalues --    1.68097   1.69439   1.71458   1.74376   1.74657
 Alpha virt. eigenvalues --    1.76926   1.79254   1.79565   1.81112   1.83349
 Alpha virt. eigenvalues --    1.84372   1.85744   1.86957   1.87612   1.88366
 Alpha virt. eigenvalues --    1.89367   1.90116   1.91778   1.92561   1.94064
 Alpha virt. eigenvalues --    1.95653   1.97256   1.97619   1.99416   2.00240
 Alpha virt. eigenvalues --    2.01475   2.02497   2.02875   2.02959   2.03260
 Alpha virt. eigenvalues --    2.03580   2.03749   2.05510   2.06022   2.07672
 Alpha virt. eigenvalues --    2.08010   2.09050   2.09988   2.10524   2.11162
 Alpha virt. eigenvalues --    2.12420   2.14033   2.16654   2.17760   2.21550
 Alpha virt. eigenvalues --    2.22776   2.23834   2.25712   2.26763   2.28307
 Alpha virt. eigenvalues --    2.30495   2.33985   2.35359   2.38046   2.40077
 Alpha virt. eigenvalues --    2.41476   2.44423   2.45309   2.50157   2.50923
 Alpha virt. eigenvalues --    2.51830   2.53946   2.54461   2.56800   2.57688
 Alpha virt. eigenvalues --    2.58252   2.60266   2.62496   2.64370   2.64872
 Alpha virt. eigenvalues --    2.65541   2.67096   2.69283   2.69472   2.69794
 Alpha virt. eigenvalues --    2.70848   2.71586   2.74770   2.78618   2.79067
 Alpha virt. eigenvalues --    2.80572   2.81311   2.84102   2.85183   2.85646
 Alpha virt. eigenvalues --    2.86843   2.89128   2.90404   2.91192   2.92212
 Alpha virt. eigenvalues --    2.97636   2.97983   2.99014   3.04737   3.10705
 Alpha virt. eigenvalues --    3.11596   3.13435   3.14435   3.17202   3.18279
 Alpha virt. eigenvalues --    3.23645   3.26959   3.27649   3.32882   3.36360
 Alpha virt. eigenvalues --    3.37743   3.38610   3.41821   3.42850   3.43321
 Alpha virt. eigenvalues --    3.43727   3.43997   3.46579   3.48421   3.49079
 Alpha virt. eigenvalues --    3.55532   3.95564   4.00881   4.08685   4.13289
 Alpha virt. eigenvalues --    4.18839   4.32042   4.38237   4.40577   4.44941
 Alpha virt. eigenvalues --    4.49363   4.52202   4.64987   4.69124   4.76816
          Condensed to atoms (all electrons):
              1          2          3          4          5          6
     1  C    5.156213   0.350722  -0.080775  -0.120656   0.007398  -0.000419
     2  C    0.350722   4.348391   0.582693   0.256639  -0.036993   0.002084
     3  O   -0.080775   0.582693   8.087010  -0.098741  -0.002959   0.001886
     4  N   -0.120656   0.256639  -0.098741   7.092303   0.294212  -0.054391
     5  C    0.007398  -0.036993  -0.002959   0.294212   5.104085   0.291359
     6  C   -0.000419   0.002084   0.001886  -0.054391   0.291359   4.426242
     7  O   -0.000242   0.008808  -0.001099  -0.006123  -0.091665   0.577390
     8  N   -0.000007   0.000025  -0.000299   0.003050  -0.109490   0.272754
     9  C    0.000000  -0.000046   0.000006   0.000326   0.000358  -0.028293
    10  C    0.000000  -0.000006   0.000002  -0.000105   0.005390  -0.026642
    11  H    0.367732  -0.023023   0.004834   0.004485  -0.000166   0.000004
    12  H    0.354424  -0.019985   0.002300   0.002556  -0.000190   0.000021
    13  H    0.367751  -0.021831   0.000393   0.001354  -0.000277   0.000030
    14  H    0.000809  -0.004838   0.021407  -0.036900   0.363946  -0.028865
    15  H   -0.000113   0.005682   0.000873  -0.039818   0.361786  -0.034723
    16  H   -0.000001  -0.000048  -0.000042   0.000159   0.007459  -0.009907
    17  H    0.000000  -0.000001   0.000000  -0.000006  -0.000343   0.001946
    18  H    0.000000   0.000018   0.000003  -0.000008  -0.000277  -0.000256
    19  H    0.000000   0.000000   0.000000   0.000001  -0.000127   0.002057
    20  H    0.000000  -0.000008   0.000000  -0.000009   0.001197  -0.002726
    21  H    0.000000   0.000002   0.000000   0.000003  -0.000106  -0.000085
    22  C   -0.000096  -0.023121   0.002425   0.241768  -0.042631  -0.004821
    23  H    0.008054  -0.009054   0.000133  -0.028706   0.004043   0.000239
    24  H   -0.000319   0.002459  -0.000054  -0.034252  -0.002692   0.003367
    25  C   -0.001427   0.000476  -0.000043  -0.054307  -0.004131   0.000207
    26  H   -0.000479   0.001100  -0.000032   0.003990   0.000128  -0.000012
    27  H    0.000073  -0.000048  -0.000001   0.002358   0.000779   0.000169
    28  O   -0.000002   0.000013   0.000000   0.002091   0.000021   0.000000
    29  C    0.000000  -0.000001   0.000000  -0.000127  -0.000001   0.000000
    30  H    0.000000   0.000000   0.000000   0.000001   0.000000   0.000000
    31  H    0.000000   0.000000   0.000000   0.000012  -0.000002   0.000000
    32  H   -0.000001   0.000000   0.000000   0.000008   0.000000   0.000000
              7          8          9         10         11         12
     1  C   -0.000242  -0.000007   0.000000   0.000000   0.367732   0.354424
     2  C    0.008808   0.000025  -0.000046  -0.000006  -0.023023  -0.019985
     3  O   -0.001099  -0.000299   0.000006   0.000002   0.004834   0.002300
     4  N   -0.006123   0.003050   0.000326  -0.000105   0.004485   0.002556
     5  C   -0.091665  -0.109490   0.000358   0.005390  -0.000166  -0.000190
     6  C    0.577390   0.272754  -0.028293  -0.026642   0.000004   0.000021
     7  O    8.094489  -0.089033   0.002685  -0.012385   0.000000   0.000001
     8  N   -0.089033   7.013311   0.300650   0.291693   0.000000   0.000000
     9  C    0.002685   0.300650   4.800924  -0.051555   0.000000   0.000000
    10  C   -0.012385   0.291693  -0.051555   4.819457   0.000000   0.000000
    11  H    0.000000   0.000000   0.000000   0.000000   0.550037  -0.024094
    12  H    0.000001   0.000000   0.000000   0.000000  -0.024094   0.595174
    13  H    0.000240   0.000000   0.000000   0.000000  -0.021131  -0.029335
    14  H    0.001439   0.001355  -0.001448  -0.000258  -0.000016  -0.000054
    15  H    0.000643   0.002043  -0.001871  -0.000217   0.000003  -0.000010
    16  H    0.000070  -0.028809   0.385000   0.004257   0.000000   0.000000
    17  H   -0.000051  -0.042936   0.383358  -0.003682   0.000000   0.000000
    18  H    0.000001  -0.046205   0.384311  -0.000787   0.000000   0.000000
    19  H    0.000597  -0.043547  -0.003020   0.384178   0.000000   0.000000
    20  H    0.023814  -0.035986   0.004373   0.383823   0.000000   0.000000
    21  H    0.000717  -0.046108  -0.000740   0.388179   0.000000   0.000000
    22  C    0.003345   0.000185  -0.000008  -0.000004   0.000372  -0.001424
    23  H   -0.000051  -0.000001   0.000000   0.000000  -0.000031  -0.001925
    24  H    0.006279  -0.000235  -0.000004   0.000014  -0.000013   0.000208
    25  C    0.000326   0.000011  -0.000001   0.000000   0.000013  -0.000117
    26  H   -0.000002   0.000000   0.000000   0.000000  -0.000035   0.003151
    27  H    0.000007  -0.000001   0.000001   0.000000   0.000001  -0.000082
    28  O    0.000000   0.000000   0.000000   0.000000   0.000000  -0.000051
    29  C    0.000000   0.000000   0.000000   0.000000   0.000000  -0.000003
    30  H    0.000000   0.000000   0.000000   0.000000   0.000000   0.000000
    31  H    0.000000   0.000000   0.000000   0.000000   0.000000   0.000000
    32  H    0.000000   0.000000   0.000000   0.000000   0.000000   0.000005
             13         14         15         16         17         18
     1  C    0.367751   0.000809  -0.000113  -0.000001   0.000000   0.000000
     2  C   -0.021831  -0.004838   0.005682  -0.000048  -0.000001   0.000018
     3  O    0.000393   0.021407   0.000873  -0.000042   0.000000   0.000003
     4  N    0.001354  -0.036900  -0.039818   0.000159  -0.000006  -0.000008
     5  C   -0.000277   0.363946   0.361786   0.007459  -0.000343  -0.000277
     6  C    0.000030  -0.028865  -0.034723  -0.009907   0.001946  -0.000256
     7  O    0.000240   0.001439   0.000643   0.000070  -0.000051   0.000001
     8  N    0.000000   0.001355   0.002043  -0.028809  -0.042936  -0.046205
     9  C    0.000000  -0.001448  -0.001871   0.385000   0.383358   0.384311
    10  C    0.000000  -0.000258  -0.000217   0.004257  -0.003682  -0.000787
    11  H   -0.021131  -0.000016   0.000003   0.000000   0.000000   0.000000
    12  H   -0.029335  -0.000054  -0.000010   0.000000   0.000000   0.000000
    13  H    0.557504  -0.000015  -0.000005   0.000000   0.000000   0.000000
    14  H   -0.000015   0.547642  -0.026030  -0.000555   0.000066   0.000696
    15  H   -0.000005  -0.026030   0.609237   0.001335   0.000116  -0.000011
    16  H    0.000000  -0.000555   0.001335   0.573407  -0.025513  -0.032347
    17  H    0.000000   0.000066   0.000116  -0.025513   0.610644  -0.046270
    18  H    0.000000   0.000696  -0.000011  -0.032347  -0.046270   0.609632
    19  H    0.000000  -0.000008   0.000026   0.000089   0.007130  -0.001528
    20  H    0.000000  -0.000033  -0.000032  -0.000238   0.000024  -0.000127
    21  H    0.000000   0.000025  -0.000008  -0.000080  -0.002236   0.006187
    22  C   -0.002372   0.004856  -0.000404   0.000003   0.000000   0.000000
    23  H    0.001629  -0.000238   0.000055   0.000000   0.000000   0.000000
    24  H    0.000185   0.000084  -0.002347   0.000002   0.000001  -0.000001
    25  C    0.000067   0.000135   0.001354   0.000000   0.000000   0.000000
    26  H    0.000052  -0.000001  -0.000199   0.000000   0.000000   0.000000
    27  H   -0.000005  -0.000180   0.002947  -0.000003   0.000000   0.000000
    28  O   -0.000002   0.000000  -0.000116   0.000000   0.000000   0.000000
    29  C    0.000000   0.000000   0.000003   0.000000   0.000000   0.000000
    30  H    0.000000   0.000000   0.000000   0.000000   0.000000   0.000000
    31  H    0.000000   0.000000   0.000004   0.000000   0.000000   0.000000
    32  H    0.000000   0.000000   0.000000   0.000000   0.000000   0.000000
             19         20         21         22         23         24
     1  C    0.000000   0.000000   0.000000  -0.000096   0.008054  -0.000319
     2  C    0.000000  -0.000008   0.000002  -0.023121  -0.009054   0.002459
     3  O    0.000000   0.000000   0.000000   0.002425   0.000133  -0.000054
     4  N    0.000001  -0.000009   0.000003   0.241768  -0.028706  -0.034252
     5  C   -0.000127   0.001197  -0.000106  -0.042631   0.004043  -0.002692
     6  C    0.002057  -0.002726  -0.000085  -0.004821   0.000239   0.003367
     7  O    0.000597   0.023814   0.000717   0.003345  -0.000051   0.006279
     8  N   -0.043547  -0.035986  -0.046108   0.000185  -0.000001  -0.000235
     9  C   -0.003020   0.004373  -0.000740  -0.000008   0.000000  -0.000004
    10  C    0.384178   0.383823   0.388179  -0.000004   0.000000   0.000014
    11  H    0.000000   0.000000   0.000000   0.000372  -0.000031  -0.000013
    12  H    0.000000   0.000000   0.000000  -0.001424  -0.001925   0.000208
    13  H    0.000000   0.000000   0.000000  -0.002372   0.001629   0.000185
    14  H   -0.000008  -0.000033   0.000025   0.004856  -0.000238   0.000084
    15  H    0.000026  -0.000032  -0.000008  -0.000404   0.000055  -0.002347
    16  H    0.000089  -0.000238  -0.000080   0.000003   0.000000   0.000002
    17  H    0.007130   0.000024  -0.002236   0.000000   0.000000   0.000001
    18  H   -0.001528  -0.000127   0.006187   0.000000   0.000000  -0.000001
    19  H    0.614400  -0.023825  -0.044789   0.000000   0.000000   0.000000
    20  H   -0.023825   0.513462  -0.025355  -0.000005   0.000000   0.000002
    21  H   -0.044789  -0.025355   0.608665   0.000000   0.000000   0.000000
    22  C    0.000000  -0.000005   0.000000   4.905047   0.379655   0.378412
    23  H    0.000000   0.000000   0.000000   0.379655   0.587806  -0.028914
    24  H    0.000000   0.000002   0.000000   0.378412  -0.028914   0.584394
    25  C    0.000000   0.000000   0.000000   0.351532  -0.043401  -0.045961
    26  H    0.000000   0.000000   0.000000  -0.038065  -0.008635   0.006343
    27  H    0.000000   0.000000   0.000000  -0.041595   0.006547  -0.007213
    28  O    0.000000   0.000000   0.000000  -0.039758   0.005337   0.005545
    29  C    0.000000   0.000000   0.000000   0.004343  -0.000082  -0.000093
    30  H    0.000000   0.000000   0.000000  -0.000251   0.000007   0.000010
    31  H    0.000000   0.000000   0.000000   0.000007   0.000047  -0.000054
    32  H    0.000000   0.000000   0.000000   0.000028  -0.000070   0.000044
             25         26         27         28         29         30
     1  C   -0.001427  -0.000479   0.000073  -0.000002   0.000000   0.000000
     2  C    0.000476   0.001100  -0.000048   0.000013  -0.000001   0.000000
     3  O   -0.000043  -0.000032  -0.000001   0.000000   0.000000   0.000000
     4  N   -0.054307   0.003990   0.002358   0.002091  -0.000127   0.000001
     5  C   -0.004131   0.000128   0.000779   0.000021  -0.000001   0.000000
     6  C    0.000207  -0.000012   0.000169   0.000000   0.000000   0.000000
     7  O    0.000326  -0.000002   0.000007   0.000000   0.000000   0.000000
     8  N    0.000011   0.000000  -0.000001   0.000000   0.000000   0.000000
     9  C   -0.000001   0.000000   0.000001   0.000000   0.000000   0.000000
    10  C    0.000000   0.000000   0.000000   0.000000   0.000000   0.000000
    11  H    0.000013  -0.000035   0.000001   0.000000   0.000000   0.000000
    12  H   -0.000117   0.003151  -0.000082  -0.000051  -0.000003   0.000000
    13  H    0.000067   0.000052  -0.000005  -0.000002   0.000000   0.000000
    14  H    0.000135  -0.000001  -0.000180   0.000000   0.000000   0.000000
    15  H    0.001354  -0.000199   0.002947  -0.000116   0.000003   0.000000
    16  H    0.000000   0.000000  -0.000003   0.000000   0.000000   0.000000
    17  H    0.000000   0.000000   0.000000   0.000000   0.000000   0.000000
    18  H    0.000000   0.000000   0.000000   0.000000   0.000000   0.000000
    19  H    0.000000   0.000000   0.000000   0.000000   0.000000   0.000000
    20  H    0.000000   0.000000   0.000000   0.000000   0.000000   0.000000
    21  H    0.000000   0.000000   0.000000   0.000000   0.000000   0.000000
    22  C    0.351532  -0.038065  -0.041595  -0.039758   0.004343  -0.000251
    23  H   -0.043401  -0.008635   0.006547   0.005337  -0.000082   0.000007
    24  H   -0.045961   0.006343  -0.007213   0.005545  -0.000093   0.000010
    25  C    4.797340   0.358021   0.361490   0.231012  -0.033900   0.005284
    26  H    0.358021   0.689079  -0.061906  -0.038886  -0.006655  -0.000097
    27  H    0.361490  -0.061906   0.694393  -0.039250  -0.006170  -0.000114
    28  O    0.231012  -0.038886  -0.039250   8.205957   0.259152  -0.032895
    29  C   -0.033900  -0.006655  -0.006170   0.259152   4.707508   0.394777
    30  H    0.005284  -0.000097  -0.000114  -0.032895   0.394777   0.585428
    31  H   -0.009106  -0.002733   0.013388  -0.037709   0.369715  -0.035058
    32  H   -0.009050   0.013517  -0.002753  -0.037682   0.370398  -0.034907
             31         32
     1  C    0.000000  -0.000001
     2  C    0.000000   0.000000
     3  O    0.000000   0.000000
     4  N    0.000012   0.000008
     5  C   -0.000002   0.000000
     6  C    0.000000   0.000000
     7  O    0.000000   0.000000
     8  N    0.000000   0.000000
     9  C    0.000000   0.000000
    10  C    0.000000   0.000000
    11  H    0.000000   0.000000
    12  H    0.000000   0.000005
    13  H    0.000000   0.000000
    14  H    0.000000   0.000000
    15  H    0.000004   0.000000
    16  H    0.000000   0.000000
    17  H    0.000000   0.000000
    18  H    0.000000   0.000000
    19  H    0.000000   0.000000
    20  H    0.000000   0.000000
    21  H    0.000000   0.000000
    22  C    0.000007   0.000028
    23  H    0.000047  -0.000070
    24  H   -0.000054   0.000044
    25  C   -0.009106  -0.009050
    26  H   -0.002733   0.013517
    27  H    0.013388  -0.002753
    28  O   -0.037709  -0.037682
    29  C    0.369715   0.370398
    30  H   -0.035058  -0.034907
    31  H    0.663242  -0.052782
    32  H   -0.052782   0.660767
 Mulliken atomic charges:
              1
     1  C   -0.408640
     2  C    0.579892
     3  O   -0.519920
     4  N   -0.431170
     5  C   -0.150110
     6  C    0.611386
     7  O   -0.520203
     8  N   -0.442419
     9  C   -0.175006
    10  C   -0.181351
    11  H    0.141028
    12  H    0.119431
    13  H    0.145767
    14  H    0.156979
    15  H    0.119795
    16  H    0.125762
    17  H    0.117753
    18  H    0.126970
    19  H    0.108366
    20  H    0.161649
    21  H    0.115731
    22  C   -0.077423
    23  H    0.127555
    24  H    0.134804
    25  C    0.094174
    26  H    0.082355
    27  H    0.077168
    28  O   -0.482779
    29  C   -0.058866
    30  H    0.117815
    31  H    0.091030
    32  H    0.092477
 Sum of Mulliken atomic charges =   0.00000
 Mulliken charges with hydrogens summed into heavy atoms:
              1
     1  C   -0.002415
     2  C    0.579892
     3  O   -0.519920
     4  N   -0.431170
     5  C    0.126663
     6  C    0.611386
     7  O   -0.520203
     8  N   -0.442419
     9  C    0.195480
    10  C    0.204394
    22  C    0.184935
    25  C    0.253698
    28  O   -0.482779
    29  C    0.242457
 Sum of Mulliken charges with hydrogens summed into heavy atoms =   0.00000
 Electronic spatial extent (au):  <R**2>=           4000.3374
 Charge=              0.0000 electrons
 Dipole moment (field-independent basis, Debye):
    X=              0.7114    Y=             -3.2154    Z=             -2.3044  Tot=              4.0194
 Quadrupole moment (field-independent basis, Debye-Ang):
   XX=            -68.5902   YY=            -87.3633   ZZ=            -87.5165
   XY=              8.1427   XZ=              0.3004   YZ=              6.3546
 Traceless Quadrupole moment (field-independent basis, Debye-Ang):
   XX=             12.5665   YY=             -6.2066   ZZ=             -6.3598
   XY=              8.1427   XZ=              0.3004   YZ=              6.3546
 Octapole moment (field-independent basis, Debye-Ang**2):
  XXX=            -10.5521  YYY=            -13.9647  ZZZ=             -2.2902  XYY=             17.2009
  XXY=            -27.5713  XXZ=            -14.3000  XZZ=             -2.4445  YZZ=             -3.4224
  YYZ=             10.1808  XYZ=              1.2955
 Hexadecapole moment (field-independent basis, Debye-Ang**3):
 XXXX=          -3160.9530 YYYY=          -1207.3904 ZZZZ=           -434.0786 XXXY=            -52.3954
 XXXZ=            -35.8661 YYYX=             19.8059 YYYZ=             25.0043 ZZZX=             16.3117
 ZZZY=             -1.7839 XXYY=           -738.0861 XXZZ=           -656.4210 YYZZ=           -273.9762
 XXYZ=             10.2320 YYXZ=             -8.6453 ZZXY=              7.0946
 N-N= 9.599456351122D+02 E-N=-3.525903906951D+03  KE= 6.826254527921D+02
 Calling FoFJK, ICntrl=      2127 FMM=F ISym2X=0 I1Cent= 0 IOpClX= 0 NMat=1 NMatS=1 NMatT=0.
 ***** Axes restored to original set *****
 -------------------------------------------------------------------
 Center     Atomic                   Forces (Hartrees/Bohr)
 Number     Number              X              Y              Z
 -------------------------------------------------------------------
      1        6           0.000001341    0.000000947   -0.000004761
      2        6           0.000331723    0.000041234   -0.000837322
      3        8           0.000001949   -0.000000312   -0.000002017
      4        7          -0.000335257   -0.000304472    0.001266643
      5        6          -0.000347539    0.000913537   -0.000670054
      6        6           0.000350234   -0.000648045    0.000237253
      7        8           0.000000493    0.000001447    0.000000007
      8        7           0.000000490    0.000002525    0.000002659
      9        6           0.000000985   -0.000001836    0.000002679
     10        6           0.000000389    0.000002704    0.000004549
     11        1           0.000000743   -0.000000149   -0.000005834
     12        1           0.000000579    0.000000193   -0.000004362
     13        1           0.000001372    0.000001469   -0.000004009
     14        1          -0.000001194   -0.000001529    0.000001228
     15        1          -0.000001223   -0.000003277    0.000000949
     16        1          -0.000001164   -0.000001394    0.000003252
     17        1          -0.000001601   -0.000000572    0.000004969
     18        1          -0.000001263   -0.000001415    0.000003321
     19        1          -0.000000317    0.000001837    0.000005138
     20        1           0.000000919    0.000003128    0.000002271
     21        1           0.000000382    0.000001747    0.000003457
     22        6           0.000000380    0.000000044   -0.000000030
     23        1           0.000000985    0.000000985   -0.000002609
     24        1           0.000000246    0.000001291    0.000000300
     25        6           0.000000296   -0.000000305   -0.000001402
     26        1          -0.000000726   -0.000002267   -0.000002266
     27        1          -0.000001036   -0.000002056   -0.000000402
     28        8           0.000000433   -0.000000506   -0.000000403
     29        6          -0.000000601   -0.000000245   -0.000000320
     30        1          -0.000000235   -0.000000435   -0.000000623
     31        1          -0.000001088   -0.000002335   -0.000000168
     32        1          -0.000000692   -0.000001940   -0.000002094
 -------------------------------------------------------------------
 Cartesian Forces:  Max     0.001266643 RMS     0.000219514

 GradGradGradGradGradGradGradGradGradGradGradGradGradGradGradGradGradGrad
 Berny optimization.
 Internal  Forces:  Max     0.000794978 RMS     0.000107566
 Search for a local minimum.
 Step number   1 out of a maximum of  155 on scan point     1 out of    37
 All quantities printed in internal units (Hartrees-Bohrs-Radians)
 Mixed Optimization -- En-DIIS/RFO-DIIS
 Second derivative matrix not updated -- first step.
 ITU=  0
     Eigenvalues ---    0.00379   0.00499   0.00696   0.00884   0.00940
     Eigenvalues ---    0.00979   0.01077   0.01275   0.01296   0.01529
     Eigenvalues ---    0.01532   0.01943   0.02074   0.03025   0.04202
     Eigenvalues ---    0.05322   0.05477   0.05894   0.06486   0.06925
     Eigenvalues ---    0.07235   0.07470   0.07506   0.07512   0.07663
     Eigenvalues ---    0.09381   0.09717   0.10036   0.10507   0.10554
     Eigenvalues ---    0.11125   0.12834   0.13637   0.16000   0.16000
     Eigenvalues ---    0.16000   0.16000   0.16000   0.16000   0.16000
     Eigenvalues ---    0.16000   0.16000   0.16000   0.16000   0.16000
     Eigenvalues ---    0.21906   0.21921   0.22018   0.23427   0.24227
     Eigenvalues ---    0.24722   0.24849   0.24987   0.24996   0.25000
     Eigenvalues ---    0.25000   0.25000   0.27982   0.29492   0.30352
     Eigenvalues ---    0.33227   0.33300   0.33522   0.33535   0.33814
     Eigenvalues ---    0.33934   0.34072   0.34105   0.34157   0.34194
     Eigenvalues ---    0.34402   0.34449   0.34537   0.34731   0.34789
     Eigenvalues ---    0.34857   0.34979   0.35007   0.36830   0.37361
     Eigenvalues ---    0.37743   0.38201   0.43637   0.43677   0.48922
     Eigenvalues ---    0.50763   0.92525   0.926701000.000001000.00000
     Eigenvalues --- 1000.000001000.000001000.000001000.000001000.00000
     Eigenvalues --- 1000.000001000.000001000.000001000.000001000.00000
     Eigenvalues --- 1000.000001000.000001000.000001000.000001000.00000
     Eigenvalues --- 1000.000001000.000001000.000001000.000001000.00000
     Eigenvalues --- 1000.000001000.000001000.000001000.000001000.00000
     Eigenvalues --- 1000.000001000.000001000.000001000.000001000.00000
     Eigenvalues --- 1000.000001000.000001000.000001000.000001000.00000
     Eigenvalues --- 1000.000001000.000001000.000001000.000001000.00000
     Eigenvalues --- 1000.000001000.000001000.000001000.000001000.00000
     Eigenvalues --- 1000.000001000.000001000.000001000.000001000.00000
     Eigenvalues --- 1000.000001000.000001000.000001000.000001000.00000
 RFO step:  Lambda= 0.00000000D+00 EMin= 3.78865662D-03
 Linear search not attempted -- first point.
 Iteration  1 RMS(Cart)=  0.00007111 RMS(Int)=  0.00000000
 Iteration  2 RMS(Cart)=  0.00000000 RMS(Int)=  0.00000000
 Iteration  1 RMS(Cart)=  0.00000000 RMS(Int)=  0.00000000
 Variable       Old X    -DE/DX   Delta X   Delta X   Delta X     New X
                                 (Linear)    (Quad)   (Total)
    R1        2.87266   0.00000   0.00000   0.00000   0.00000   2.87266
    R2        2.05907   0.00000   0.00000   0.00000   0.00000   2.05907
    R3        2.06657   0.00000   0.00000   0.00000   0.00000   2.06657
    R4        2.07003   0.00000   0.00000   0.00000   0.00000   2.07003
    R5        2.31790   0.00000   0.00000   0.00000   0.00000   2.31790
    R6        2.60969   0.00000   0.00000   0.00000   0.00000   2.60970
    R7        2.74074   0.00000   0.00000   0.00001   0.00001   2.74075
    R8        2.76103   0.00000   0.00000   0.00000   0.00000   2.76103
    R9        2.92177   0.00000   0.00000   0.00000   0.00000   2.92177
   R10        2.06113   0.00000   0.00000   0.00000   0.00000   2.06113
   R11        2.07067   0.00000   0.00000   0.00001   0.00001   2.07067
   R12        2.31726   0.00000   0.00000   0.00000   0.00000   2.31726
   R13        2.59103   0.00000   0.00000   0.00000   0.00000   2.59103
   R14        2.74740   0.00000   0.00000   0.00000   0.00000   2.74740
   R15        2.75306   0.00000   0.00000   0.00000   0.00000   2.75306
   R16        2.05709   0.00000   0.00000   0.00000   0.00000   2.05710
   R17        2.07154   0.00000   0.00000   0.00000   0.00000   2.07154
   R18        2.07644   0.00000   0.00000   0.00000   0.00000   2.07644
   R19        2.07209   0.00000   0.00000   0.00000   0.00000   2.07209
   R20        2.05664   0.00000   0.00000   0.00000   0.00000   2.05664
   R21        2.07441   0.00000   0.00000   0.00000   0.00000   2.07441
   R22        2.06019   0.00000   0.00000   0.00000   0.00000   2.06019
   R23        2.06579   0.00000   0.00000   0.00000   0.00000   2.06579
   R24        2.88989   0.00000   0.00000   0.00000   0.00000   2.88989
   R25        2.08527   0.00000   0.00000   0.00000   0.00000   2.08527
   R26        2.08654   0.00000   0.00000   0.00000   0.00000   2.08655
   R27        2.66891   0.00000   0.00000   0.00000   0.00000   2.66891
   R28        2.66843   0.00000   0.00000   0.00000   0.00000   2.66843
   R29        2.06433   0.00000   0.00000   0.00000   0.00000   2.06433
   R30        2.08145   0.00000   0.00000   0.00000   0.00000   2.08145
   R31        2.08121   0.00000   0.00000   0.00000   0.00000   2.08121
    A1        1.87318   0.00000   0.00000   0.00000   0.00000   1.87318
    A2        1.97346   0.00000   0.00000   0.00001   0.00001   1.97347
    A3        1.92662   0.00000   0.00000   0.00000   0.00000   1.92662
    A4        1.91125   0.00000   0.00000   0.00000   0.00000   1.91125
    A5        1.89348   0.00000   0.00000   0.00000   0.00000   1.89348
    A6        1.88457   0.00000   0.00000   0.00000   0.00000   1.88457
    A7        2.11498   0.00000   0.00000  -0.00001  -0.00001   2.11498
    A8        2.05588   0.00000   0.00000   0.00000   0.00000   2.05589
    A9        2.11215   0.00000   0.00000   0.00000   0.00000   2.11216
   A10        2.02210  -0.00005   0.00000   0.00000   0.00000   2.02210
   A11        2.16765   0.00015   0.00000   0.00001   0.00001   2.16766
   A12        2.04935  -0.00003   0.00000  -0.00002  -0.00002   2.04933
   A13        1.93864   0.00000   0.00000   0.00001   0.00001   1.93864
   A14        1.88308   0.00003   0.00000   0.00000   0.00000   1.88307
   A15        1.90753  -0.00002   0.00000   0.00001   0.00001   1.90754
   A16        1.92439   0.00037   0.00000  -0.00001  -0.00001   1.92438
   A17        1.91509  -0.00036   0.00000  -0.00001  -0.00001   1.91509
   A18        1.89429   0.00000   0.00000   0.00000   0.00000   1.89429
   A19        2.09758   0.00000   0.00000   0.00001   0.00001   2.09759
   A20        2.04505  -0.00001   0.00000  -0.00002  -0.00002   2.04503
   A21        2.14008   0.00000   0.00000   0.00001   0.00001   2.14009
   A22        2.18262   0.00000   0.00000  -0.00001  -0.00001   2.18260
   A23        2.07468   0.00000   0.00000   0.00001   0.00001   2.07469
   A24        2.01718   0.00000   0.00000   0.00001   0.00001   2.01719
   A25        1.94843   0.00000   0.00000   0.00000   0.00000   1.94843
   A26        1.91204   0.00000   0.00000   0.00000   0.00000   1.91204
   A27        1.94670   0.00000   0.00000   0.00000   0.00000   1.94670
   A28        1.87938   0.00000   0.00000   0.00000   0.00000   1.87939
   A29        1.89106   0.00000   0.00000   0.00000   0.00000   1.89107
   A30        1.88387   0.00000   0.00000   0.00000   0.00000   1.88386
   A31        1.92441   0.00000   0.00000   0.00000   0.00000   1.92442
   A32        1.89184   0.00000   0.00000   0.00000   0.00000   1.89184
   A33        1.93314   0.00000   0.00000   0.00000   0.00000   1.93314
   A34        1.91584   0.00000   0.00000   0.00000   0.00000   1.91584
   A35        1.89174   0.00000   0.00000   0.00000   0.00000   1.89174
   A36        1.90686   0.00000   0.00000   0.00000   0.00000   1.90686
   A37        1.92797   0.00000   0.00000   0.00000   0.00000   1.92797
   A38        1.90287   0.00000   0.00000  -0.00001  -0.00001   1.90286
   A39        1.95549   0.00000   0.00000   0.00000   0.00000   1.95549
   A40        1.85180   0.00000   0.00000   0.00000   0.00000   1.85180
   A41        1.90553   0.00000   0.00000   0.00000   0.00000   1.90554
   A42        1.91733   0.00000   0.00000   0.00000   0.00000   1.91733
   A43        1.92179   0.00000   0.00000   0.00000   0.00000   1.92179
   A44        1.92735   0.00000   0.00000   0.00000   0.00000   1.92735
   A45        1.87719   0.00000   0.00000   0.00000   0.00000   1.87719
   A46        1.86389   0.00000   0.00000   0.00000   0.00000   1.86389
   A47        1.93892   0.00000   0.00000   0.00000   0.00000   1.93892
   A48        1.93538   0.00000   0.00000   0.00000   0.00000   1.93538
   A49        1.97309   0.00000   0.00000   0.00000   0.00000   1.97308
   A50        1.87278   0.00000   0.00000   0.00000   0.00000   1.87278
   A51        1.95163   0.00000   0.00000   0.00000   0.00000   1.95163
   A52        1.95129   0.00000   0.00000   0.00000   0.00000   1.95129
   A53        1.89940   0.00000   0.00000   0.00000   0.00000   1.89940
   A54        1.89987   0.00000   0.00000   0.00000   0.00000   1.89987
   A55        1.88778   0.00000   0.00000   0.00000   0.00000   1.88778
    D1       -0.21723   0.00000   0.00000  -0.00002  -0.00002  -0.21725
    D2        2.90497   0.00000   0.00000   0.00002   0.00002   2.90499
    D3       -2.32677   0.00000   0.00000  -0.00002  -0.00002  -2.32679
    D4        0.79542   0.00000   0.00000   0.00002   0.00002   0.79544
    D5        1.84322   0.00000   0.00000  -0.00002  -0.00002   1.84319
    D6       -1.31778   0.00000   0.00000   0.00002   0.00002  -1.31776
    D7        3.01506   0.00012   0.00000  -0.00007  -0.00007   3.01499
    D8        0.19724  -0.00012   0.00000  -0.00004  -0.00004   0.19720
    D9       -0.14589   0.00012   0.00000  -0.00003  -0.00003  -0.14593
   D10       -2.96372  -0.00012   0.00000   0.00000   0.00000  -2.96372
   D11       -1.41948  -0.00079   0.00000   0.00000   0.00000  -1.41948
   D12        0.69160  -0.00033   0.00000  -0.00001  -0.00001   0.69159
   D13        2.74821  -0.00032   0.00000   0.00000   0.00000   2.74821
   D14        1.42116  -0.00053   0.00000  -0.00002  -0.00002   1.42113
   D15       -2.75096  -0.00007   0.00000  -0.00003  -0.00003  -2.75099
   D16       -0.69434  -0.00006   0.00000  -0.00003  -0.00003  -0.69437
   D17        0.25841   0.00012   0.00000  -0.00005  -0.00005   0.25836
   D18        2.28681   0.00012   0.00000  -0.00005  -0.00005   2.28676
   D19       -1.87026   0.00012   0.00000  -0.00006  -0.00006  -1.87032
   D20       -2.55479  -0.00012   0.00000  -0.00002  -0.00002  -2.55481
   D21       -0.52639  -0.00012   0.00000  -0.00002  -0.00002  -0.52642
   D22        1.59972  -0.00012   0.00000  -0.00003  -0.00003   1.59969
   D23       -0.17341   0.00018   0.00000  -0.00001  -0.00001  -0.17342
   D24        3.00046   0.00018   0.00000   0.00000   0.00000   3.00046
   D25       -2.25998  -0.00009   0.00000   0.00000   0.00000  -2.25999
   D26        0.91388  -0.00009   0.00000   0.00001   0.00001   0.91389
   D27        1.93764  -0.00009   0.00000   0.00000   0.00000   1.93765
   D28       -1.17168  -0.00009   0.00000   0.00001   0.00001  -1.17166
   D29       -0.10331   0.00000   0.00000   0.00003   0.00003  -0.10329
   D30       -3.09690   0.00000   0.00000   0.00000   0.00000  -3.09690
   D31        3.07140   0.00000   0.00000   0.00004   0.00004   3.07144
   D32        0.07781   0.00000   0.00000   0.00001   0.00001   0.07782
   D33        0.32101   0.00000   0.00000  -0.00003  -0.00003   0.32099
   D34        2.40115   0.00000   0.00000  -0.00002  -0.00002   2.40113
   D35       -1.79741   0.00000   0.00000  -0.00002  -0.00002  -1.79743
   D36       -2.96424   0.00000   0.00000   0.00000   0.00000  -2.96424
   D37       -0.88411   0.00000   0.00000   0.00001   0.00001  -0.88410
   D38        1.20052   0.00000   0.00000   0.00000   0.00000   1.20053
   D39       -2.23374   0.00000   0.00000   0.00001   0.00001  -2.23373
   D40       -0.13621   0.00000   0.00000   0.00001   0.00001  -0.13620
   D41        1.95557   0.00000   0.00000   0.00001   0.00001   1.95558
   D42        1.04209   0.00000   0.00000  -0.00002  -0.00002   1.04207
   D43        3.13962   0.00000   0.00000  -0.00001  -0.00001   3.13961
   D44       -1.05179   0.00000   0.00000  -0.00001  -0.00001  -1.05180
   D45        1.06691   0.00000   0.00000   0.00002   0.00002   1.06693
   D46       -0.98718   0.00000   0.00000   0.00002   0.00002  -0.98716
   D47       -3.10122   0.00000   0.00000   0.00003   0.00003  -3.10119
   D48       -1.07454   0.00000   0.00000   0.00001   0.00001  -1.07453
   D49       -3.12863   0.00000   0.00000   0.00001   0.00001  -3.12862
   D50        1.04052   0.00000   0.00000   0.00002   0.00002   1.04053
   D51       -3.09846   0.00000   0.00000   0.00001   0.00001  -3.09845
   D52        1.13063   0.00000   0.00000   0.00001   0.00001   1.13064
   D53       -0.98341   0.00000   0.00000   0.00002   0.00002  -0.98339
   D54       -3.12868   0.00000   0.00000   0.00001   0.00001  -3.12867
   D55       -1.02439   0.00000   0.00000   0.00001   0.00001  -1.02438
   D56        1.04552   0.00000   0.00000   0.00001   0.00001   1.04553
   D57        3.13844   0.00000   0.00000   0.00001   0.00001   3.13845
   D58       -1.06320   0.00000   0.00000   0.00001   0.00001  -1.06319
   D59        1.05652   0.00000   0.00000   0.00001   0.00001   1.05653
         Item               Value     Threshold  Converged?
 Maximum Force            0.000005     0.000450     YES
 RMS     Force            0.000001     0.000300     YES
 Maximum Displacement     0.000219     0.001800     YES
 RMS     Displacement     0.000071     0.001200     YES
 Predicted change in Energy=-4.454579D-10
 Optimization completed.
    -- Stationary point found.
                           ----------------------------
                           !   Optimized Parameters   !
                           ! (Angstroms and Degrees)  !
 --------------------------                            --------------------------
 ! Name  Definition              Value          Derivative Info.                !
 --------------------------------------------------------------------------------
 ! R1    R(1,2)                  1.5201         -DE/DX =    0.0                 !
 ! R2    R(1,11)                 1.0896         -DE/DX =    0.0                 !
 ! R3    R(1,12)                 1.0936         -DE/DX =    0.0                 !
 ! R4    R(1,13)                 1.0954         -DE/DX =    0.0                 !
 ! R5    R(2,3)                  1.2266         -DE/DX =    0.0                 !
 ! R6    R(2,4)                  1.381          -DE/DX =    0.0                 !
 ! R7    R(4,5)                  1.4503         -DE/DX =    0.0                 !
 ! R8    R(4,22)                 1.4611         -DE/DX =    0.0                 !
 ! R9    R(5,6)                  1.5461         -DE/DX =    0.0                 !
 ! R10   R(5,14)                 1.0907         -DE/DX =    0.0                 !
 ! R11   R(5,15)                 1.0957         -DE/DX =    0.0                 !
 ! R12   R(6,7)                  1.2262         -DE/DX =    0.0                 !
 ! R13   R(6,8)                  1.3711         -DE/DX =    0.0                 !
 ! R14   R(8,9)                  1.4539         -DE/DX =    0.0                 !
 ! R15   R(8,10)                 1.4569         -DE/DX =    0.0                 !
 ! R16   R(9,16)                 1.0886         -DE/DX =    0.0                 !
 ! R17   R(9,17)                 1.0962         -DE/DX =    0.0                 !
 ! R18   R(9,18)                 1.0988         -DE/DX =    0.0                 !
 ! R19   R(10,19)                1.0965         -DE/DX =    0.0                 !
 ! R20   R(10,20)                1.0883         -DE/DX =    0.0                 !
 ! R21   R(10,21)                1.0977         -DE/DX =    0.0                 !
 ! R22   R(22,23)                1.0902         -DE/DX =    0.0                 !
 ! R23   R(22,24)                1.0932         -DE/DX =    0.0                 !
 ! R24   R(22,25)                1.5293         -DE/DX =    0.0                 !
 ! R25   R(25,26)                1.1035         -DE/DX =    0.0                 !
 ! R26   R(25,27)                1.1042         -DE/DX =    0.0                 !
 ! R27   R(25,28)                1.4123         -DE/DX =    0.0                 !
 ! R28   R(28,29)                1.4121         -DE/DX =    0.0                 !
 ! R29   R(29,30)                1.0924         -DE/DX =    0.0                 !
 ! R30   R(29,31)                1.1015         -DE/DX =    0.0                 !
 ! R31   R(29,32)                1.1013         -DE/DX =    0.0                 !
 ! A1    A(2,1,11)             107.3253         -DE/DX =    0.0                 !
 ! A2    A(2,1,12)             113.071          -DE/DX =    0.0                 !
 ! A3    A(2,1,13)             110.3874         -DE/DX =    0.0                 !
 ! A4    A(11,1,12)            109.5063         -DE/DX =    0.0                 !
 ! A5    A(11,1,13)            108.4882         -DE/DX =    0.0                 !
 ! A6    A(12,1,13)            107.9777         -DE/DX =    0.0                 !
 ! A7    A(1,2,3)              121.1796         -DE/DX =    0.0                 !
 ! A8    A(1,2,4)              117.7934         -DE/DX =    0.0                 !
 ! A9    A(3,2,4)              121.0174         -DE/DX =    0.0                 !
 ! A10   A(2,4,5)              115.8578         -DE/DX =    0.0                 !
 ! A11   A(2,4,22)             124.1974         -DE/DX =    0.0002              !
 ! A12   A(5,4,22)             117.419          -DE/DX =    0.0                 !
 ! A13   A(4,5,6)              111.0757         -DE/DX =    0.0                 !
 ! A14   A(4,5,14)             107.8923         -DE/DX =    0.0                 !
 ! A15   A(4,5,15)             109.2932         -DE/DX =    0.0                 !
 ! A16   A(6,5,14)             110.2595         -DE/DX =    0.0004              !
[...]
   D20       -2.51923  -0.00089  -0.00382   0.00505   0.00123  -2.51801
   D21       -0.47642  -0.00082  -0.00399   0.00550   0.00150  -0.47492
   D22        1.63438  -0.00084  -0.00377   0.00487   0.00110   1.63548
   D23        0.99070  -0.00019   0.00273   0.00079   0.00352   0.99423
   D24       -2.06100  -0.00148   0.00000   0.00000   0.00000  -2.06100
   D25       -1.03660  -0.00067   0.00393  -0.00115   0.00277  -1.03382
   D26        2.19489  -0.00197   0.00119  -0.00194  -0.00075   2.19414
   D27       -3.13023  -0.00088   0.00458   0.00082   0.00541  -3.12482
   D28        0.10126  -0.00218   0.00185   0.00003   0.00188   0.10314
   D29       -0.29942   0.00072   0.00452   0.01570   0.02022  -0.27920
   D30       -3.13150   0.00077   0.00646   0.00955   0.01601  -3.11548
   D31        2.93420  -0.00061   0.00174   0.01489   0.01664   2.95084
   D32        0.10213  -0.00056   0.00369   0.00874   0.01243   0.11455
   D33        0.46386   0.00008   0.02228   0.01958   0.04186   0.50572
   D34        2.54268   0.00005   0.02012   0.01654   0.03666   2.57934
   D35       -1.66218   0.00003   0.01957   0.01689   0.03645  -1.62573
   D36       -2.97861   0.00005   0.02042   0.02556   0.04599  -2.93261
   D37       -0.89978   0.00002   0.01826   0.02252   0.04079  -0.85899
   D38        1.17854   0.00000   0.01771   0.02287   0.04058   1.21912
   D39       -2.42982   0.00004  -0.00151   0.01967   0.01815  -2.41166
   D40       -0.33001   0.00004  -0.00129   0.01910   0.01781  -0.31220
   D41        1.76193   0.00007  -0.00129   0.01957   0.01827   1.78020
   D42        0.98406  -0.00005  -0.00014   0.01442   0.01428   0.99834
   D43        3.08386  -0.00005   0.00009   0.01384   0.01393   3.09780
   D44       -1.10738  -0.00002   0.00008   0.01431   0.01440  -1.09298
   D45        1.09369   0.00001  -0.00037   0.00176   0.00139   1.09508
   D46       -0.95811   0.00000  -0.00004   0.00150   0.00146  -0.95665
   D47       -3.07326   0.00000  -0.00020   0.00176   0.00156  -3.07170
   D48       -1.05568   0.00002  -0.00021   0.00131   0.00110  -1.05459
   D49       -3.10748   0.00001   0.00012   0.00105   0.00117  -3.10631
   D50        1.06055   0.00001  -0.00004   0.00131   0.00127   1.06182
   D51       -3.07235  -0.00001   0.00014   0.00115   0.00128  -3.07107
   D52        1.15903  -0.00002   0.00047   0.00089   0.00136   1.16039
   D53       -0.95612  -0.00002   0.00031   0.00115   0.00146  -0.95467
   D54       -3.12565   0.00002  -0.00129   0.00283   0.00154  -3.12411
   D55       -1.02326   0.00000  -0.00129   0.00306   0.00177  -1.02149
   D56        1.04897   0.00003  -0.00153   0.00326   0.00173   1.05070
   D57       -3.13533  -0.00006   0.00219  -0.00173   0.00046  -3.13487
   D58       -1.05372  -0.00005   0.00231  -0.00184   0.00047  -1.05324
   D59        1.06549  -0.00004   0.00194  -0.00141   0.00054   1.06603
         Item               Value     Threshold  Converged?
 Maximum Force            0.000460     0.000450     NO 
 RMS     Force            0.000094     0.000300     YES
 Maximum Displacement     0.119215     0.001800     NO 
 RMS     Displacement     0.020241     0.001200     NO 
 Predicted change in Energy=-9.651315D-06
 GradGradGradGradGradGradGradGradGradGradGradGradGradGradGradGradGradGrad

                          Input orientation:                          
 ---------------------------------------------------------------------
 Center     Atomic      Atomic             Coordinates (Angstroms)
 Number     Number       Type             X           Y           Z
 ---------------------------------------------------------------------
      1          6           0        1.496177    2.845143    0.868737
      2          6           0        0.449974    2.384552   -0.136251
      3          8           0       -0.251658    3.190634   -0.727401
      4          7           0        0.369802    1.020927   -0.402170
      5          6           0       -0.824173    0.547317   -1.099094
      6          6           0       -2.005290    0.363725   -0.120429
      7          8           0       -2.375007    1.316139    0.553492
      8          7           0       -2.551046   -0.895793    0.048424
      9          6           0       -2.361311   -2.043657   -0.827296
     10          6           0       -3.687628   -1.019630    0.957410
     11          1           0        1.532821    3.932606    0.816232
     12          1           0        2.491560    2.439858    0.664064
     13          1           0        1.214890    2.553479    1.886477
     14          1           0       -1.122100    1.334035   -1.795757
     15          1           0       -0.567415   -0.342115   -1.673079
     16          1           0       -1.400702   -2.015030   -1.337033
     17          1           0       -2.386729   -2.959117   -0.226833
     18          1           0       -3.155790   -2.116861   -1.583939
     19          1           0       -3.574110   -1.922327    1.567060
     20          1           0       -3.718332   -0.139222    1.595484
     21          1           0       -4.633614   -1.092473    0.403666
     22          6           0        1.128789    0.007213    0.329434
     23          1           0        1.548138    0.419213    1.247581
     24          1           0        0.458600   -0.803937    0.635727
     25          6           0        2.260551   -0.576812   -0.517630
     26          1           0        2.984825    0.214453   -0.774581
     27          1           0        1.863677   -0.968257   -1.470491
     28          8           0        2.872043   -1.604091    0.234467
     29          6           0        3.956088   -2.210783   -0.438407
     30          1           0        4.351595   -2.988850    0.218410
     31          1           0        3.641331   -2.672405   -1.387536
     32          1           0        4.757372   -1.488053   -0.657291
 ---------------------------------------------------------------------
                    Distance matrix (angstroms):
                    1          2          3          4          5
     1  C    0.000000
     2  C    1.522066   0.000000
     3  O    2.392059   1.221276   0.000000
     4  N    2.492326   1.391622   2.280266   0.000000
     5  C    3.812661   2.434327   2.730028   1.461364   0.000000
     6  C    4.404107   3.179986   3.381575   2.480394   1.544840
     7  O    4.174122   3.098026   3.108541   2.921372   2.393159
     8  N    5.572031   4.449819   4.752680   3.522528   2.526154
     9  C    6.454231   5.290548   5.644325   4.126910   3.024865
    10  C    6.466542   5.468482   5.689534   4.740788   3.857966
    11  H    1.089346   2.115716   2.473397   3.363776   4.547975
    12  H    1.094046   2.193545   3.166242   2.766239   4.205297
    13  H    1.095438   2.169115   3.064162   2.881109   4.134742
    14  H    4.029684   2.515743   2.312144   2.065404   1.092258
    15  H    4.569229   3.291145   3.670739   2.086018   1.089253
    16  H    6.072777   4.921708   5.365715   3.636715   2.637162
    17  H    7.068710   6.050610   6.529052   4.844580   3.936686
    18  H    7.230346   5.946432   6.110412   4.865398   3.573424
    19  H    6.994586   6.135448   6.515029   5.300477   4.557376
    20  H    6.051916   5.171374   5.338685   4.695679   4.013507
    21  H    7.300373   6.182562   6.231039   5.490902   4.411240
    22  C    2.911988   2.515828   3.627217   1.462505   2.479206
    23  H    2.455883   2.642633   3.849752   2.114760   3.339333
    24  H    3.800875   3.280623   4.280091   2.101249   2.545780
    25  C    3.770420   3.491893   4.533084   2.478111   3.334260
    26  H    3.440509   3.397391   4.397125   2.761782   3.837261
    27  H    4.488771   3.875575   4.724743   2.707365   3.107963
    28  O    4.700106   4.681146   5.802766   3.682016   4.479838
    29  C    5.772536   5.788025   6.853024   4.827702   5.558283
    30  H    6.527773   6.649953   7.763409   5.684901   6.405377
    31  H    6.335282   6.109279   7.068689   5.031357   5.512761
    32  H    5.633893   5.815688   6.854590   5.060715   5.957479
                    6          7          8          9         10
     6  C    0.000000
     7  O    1.223908   0.000000
     8  N    1.383021   2.275681   0.000000
     9  C    2.534147   3.632491   1.456186   0.000000
    10  C    2.430158   2.709602   1.460620   2.448045   0.000000
    11  H    5.111993   4.710207   6.370317   7.319915   7.197059
    12  H    5.014720   4.995843   6.077290   6.773213   7.087769
    13  H    4.380896   4.024328   5.427540   6.425529   6.137178
    14  H    2.127969   2.662530   3.227232   3.725904   4.438649
    15  H    2.230789   3.312825   2.684199   2.613169   4.136935
    16  H    2.739367   3.952220   2.120254   1.087851   3.389000
    17  H    3.346356   4.345901   2.088079   1.095112   2.618468
    18  H    3.101422   4.118704   2.126342   1.099575   2.818727
    19  H    3.245743   3.599004   2.099212   2.686736   1.095180
    20  H    2.476252   2.237934   2.080469   3.367231   1.087750
    21  H    3.050127   3.305324   2.121784   2.753794   1.098557
    22  C    3.186209   3.747008   3.799417   4.210093   4.964537
    23  H    3.808067   4.083785   4.468839   5.065039   5.437620
    24  H    2.829481   3.539889   3.067789   3.410166   4.164277
    25  C    4.386318   5.120446   4.855269   4.858923   6.144320
    26  H    5.035023   5.630745   5.705774   5.803706   7.003170
    27  H    4.308799   5.223160   4.669275   4.406892   6.059234
    28  O    5.271303   6.013406   5.472312   5.358036   6.625219
    29  C    6.501325   7.314765   6.656500   6.331563   7.860886
    30  H    7.194759   7.993271   7.215001   6.859300   8.309816
    31  H    6.535134   7.474784   6.600293   6.061427   7.870456
    32  H    7.032133   7.758886   7.366259   7.142355   8.610731
                   11         12         13         14         15
    11  H    0.000000
    12  H    1.780627   0.000000
    13  H    1.774400   1.771183   0.000000
    14  H    4.541328   4.509114   4.528511   0.000000
    15  H    5.374095   4.749626   4.922552   1.769803   0.000000
    16  H    6.972553   6.245008   6.172813   3.391797   1.898932
    17  H    7.996668   7.330780   6.915667   4.742569   3.500033
    18  H    8.021219   7.596695   7.277273   4.011165   3.139643
    19  H    7.805429   7.525717   6.562727   5.284391   4.694230
    20  H    6.690413   6.788369   5.627787   4.517901   4.544552
    21  H    7.965334   7.956964   7.049588   4.801681   4.627081
    22  C    3.976044   2.808360   2.985844   3.367996   2.647489
    23  H    3.539806   2.305112   2.252628   4.150780   3.685843
    24  H    4.860183   3.828308   3.661775   3.603006   2.568379
    25  C    4.758533   3.248086   4.083119   4.089899   3.063909
    26  H    4.296937   2.695448   3.960423   4.377568   3.706141
    27  H    5.418212   4.070112   4.908440   3.784337   2.518591
    28  O    5.725992   4.084464   4.770816   5.357945   4.130519
    29  C    6.722169   4.998874   5.968035   6.340041   5.047615
    30  H    7.497294   5.755797   6.583219   7.259858   5.897423
    31  H    7.275203   5.627279   6.626963   6.237666   4.819267
    32  H    6.477078   4.723173   5.945916   6.620307   5.540609
                   16         17         18         19         20
    16  H    0.000000
    17  H    1.759572   0.000000
    18  H    1.775293   1.772735   0.000000
    19  H    3.628506   2.388066   3.184593   0.000000
    20  H    4.182072   3.611899   3.786323   1.789153   0.000000
    21  H    3.785877   2.988374   2.680281   1.778958   1.779567
    22  C    3.642102   4.633293   5.150758   5.231835   5.011876
    23  H    4.615347   5.391677   6.047819   5.641126   5.307408
    24  H    2.969096   3.672152   4.440101   4.287298   4.337019
    25  C    4.018043   5.230406   5.731101   6.340317   6.356397
    26  H    4.951747   6.263000   6.617949   7.284830   7.118610
    27  H    3.430702   4.855528   5.150457   6.301309   6.422330
    28  O    4.571087   5.450099   6.316986   6.590142   6.887035
    29  C    5.435168   6.390312   7.204157   7.798012   8.205168
    30  H    6.037934   6.753083   7.769792   8.110064   8.668358
    31  H    5.084957   6.145481   6.822614   7.832934   8.335470
    32  H    6.217848   7.306675   7.992009   8.634230   8.873099
                   21         22         23         24         25
    21  H    0.000000
    22  C    5.866865   0.000000
    23  H    6.419614   1.090225   0.000000
    24  H    5.105658   1.095871   1.748587   0.000000
    25  C    6.974540   1.529539   2.148387   2.151476   0.000000
    26  H    7.819011   2.169487   2.489003   3.067231   1.103040
    27  H    6.763333   2.175163   3.067988   2.537202   1.103939
    28  O    7.524977   2.375765   2.621619   2.574095   1.412400
    29  C    8.703027   3.674602   3.944319   3.919872   2.356051
    30  H    9.185017   4.401727   4.531386   4.483682   3.275995
    31  H    8.612741   4.054776   4.569836   4.208865   2.656087
    32  H    9.459002   4.046735   4.191107   4.540853   2.661574
                   26         27         28         29         30
    26  H    0.000000
    27  H    1.772023   0.000000
    28  O    2.082787   2.080377   0.000000
    29  C    2.634033   2.643341   1.412793   0.000000
    30  H    3.621497   3.622833   2.026545   1.092347   0.000000
    31  H    3.023353   2.463952   2.089016   1.101369   1.784285
    32  H    2.460529   3.050402   2.088818   1.101047   1.784348
                   31         32
    31  H    0.000000
    32  H    1.783674   0.000000
 Stoichiometry    C9H18N2O3
 Framework group  C1[X(C9H18N2O3)]
 Deg. of freedom    90
 Full point group                 C1      NOp   1
 Largest Abelian subgroup         C1      NOp   1
 Largest concise Abelian subgroup C1      NOp   1
                         Standard orientation:                         
 ---------------------------------------------------------------------
 Center     Atomic      Atomic             Coordinates (Angstroms)
 Number     Number       Type             X           Y           Z
 ---------------------------------------------------------------------
      1          6           0        1.276988    2.866375    0.846399
      2          6           0        0.322681    2.256287   -0.170349
      3          8           0       -0.414738    2.960886   -0.842115
      4          7           0        0.369953    0.877153   -0.350250
      5          6           0       -0.745181    0.260139   -1.065343
      6          6           0       -1.952522    0.035029   -0.128229
      7          8           0       -2.432771    0.991216    0.465924
      8          7           0       -2.398318   -1.254367    0.098642
      9          6           0       -2.071111   -2.432833   -0.691692
     10          6           0       -3.562983   -1.420459    0.964309
     11          1           0        1.224869    3.947672    0.724931
     12          1           0        2.311529    2.537135    0.711266
     13          1           0        0.972438    2.614176    1.867981
     14          1           0       -1.074080    0.974024   -1.823777
     15          1           0       -0.387453   -0.637103   -1.568790
     16          1           0       -1.092847   -2.352267   -1.160658
     17          1           0       -2.048623   -3.308636   -0.034629
     18          1           0       -2.819295   -2.620724   -1.475264
     19          1           0       -3.403722   -2.270967    1.635644
     20          1           0       -3.698046   -0.508680    1.541905
     21          1           0       -4.471766   -1.608721    0.376518
     22          6           0        1.175091   -0.020353    0.477494
     23          1           0        1.513732    0.481781    1.384011
     24          1           0        0.561255   -0.866294    0.806920
     25          6           0        2.391290   -0.554765   -0.280632
     26          1           0        3.058247    0.279107   -0.557261
     27          1           0        2.074966   -1.036633   -1.222133
     28          8           0        3.049773   -1.477289    0.562116
     29          6           0        4.211986   -2.027729   -0.022914
     30          1           0        4.639203   -2.726988    0.699405
     31          1           0        3.983097   -2.572034   -0.952621
     32          1           0        4.959503   -1.253006   -0.253843
 ---------------------------------------------------------------------
 Rotational constants (GHZ):      0.7205612      0.4429131      0.3039415
 Standard basis: 6-31G(d,p) (6D, 7F)
 There are   300 symmetry adapted basis functions of A   symmetry.
 Integral buffers will be    131072 words long.
 Raffenetti 2 integral format.
 Two-electron integral symmetry is turned on.
   300 basis functions,   518 primitive gaussians,   300 cartesian basis functions
    55 alpha electrons       55 beta electrons
       nuclear repulsion energy       965.3305464644 Hartrees.
 NAtoms=   32 NActive=   32 NUniq=   32 SFac= 1.00D+00 NAtFMM=   60 NAOKFM=F Big=F
 One-electron integrals computed using PRISM.
 NBasis=   300 RedAO= T  NBF=   300
 NBsUse=   300 1.00D-06 NBFU=   300
 Initial guess read from the read-write file.
 B after Tr=     0.000000    0.000000    0.000000
         Rot=    1.000000    0.000000    0.000000    0.000000 Ang=   0.00 deg.
 Initial guess orbital symmetries:
       Occupied  (A) (A) (A) (A) (A) (A) (A) (A) (A) (A) (A) (A)
                 (A) (A) (A) (A) (A) (A) (A) (A) (A) (A) (A) (A)
                 (A) (A) (A) (A) (A) (A) (A) (A) (A) (A) (A) (A)
                 (A) (A) (A) (A) (A) (A) (A) (A) (A) (A) (A) (A)
                 (A) (A) (A) (A) (A) (A) (A)
       Virtual   (A) (A) (A) (A) (A) (A) (A) (A) (A) (A) (A) (A)
                 (A) (A) (A) (A) (A) (A) (A) (A) (A) (A) (A) (A)
                 (A) (A) (A) (A) (A) (A) (A) (A) (A) (A) (A) (A)
                 (A) (A) (A) (A) (A) (A) (A) (A) (A) (A) (A) (A)
                 (A) (A) (A) (A) (A) (A) (A) (A) (A) (A) (A) (A)
                 (A) (A) (A) (A) (A) (A) (A) (A) (A) (A) (A) (A)
                 (A) (A) (A) (A) (A) (A) (A) (A) (A) (A) (A) (A)
                 (A) (A) (A) (A) (A) (A) (A) (A) (A) (A) (A) (A)
                 (A) (A) (A) (A) (A) (A) (A) (A) (A) (A) (A) (A)
                 (A) (A) (A) (A) (A) (A) (A) (A) (A) (A) (A) (A)
                 (A) (A) (A) (A) (A) (A) (A) (A) (A) (A) (A) (A)
                 (A) (A) (A) (A) (A) (A) (A) (A) (A) (A) (A) (A)
                 (A) (A) (A) (A) (A) (A) (A) (A) (A) (A) (A) (A)
                 (A) (A) (A) (A) (A) (A) (A) (A) (A) (A) (A) (A)
                 (A) (A) (A) (A) (A) (A) (A) (A) (A) (A) (A) (A)
                 (A) (A) (A) (A) (A) (A) (A) (A) (A) (A) (A) (A)
                 (A) (A) (A) (A) (A) (A) (A) (A) (A) (A) (A) (A)
                 (A) (A) (A) (A) (A) (A) (A) (A) (A) (A) (A) (A)
                 (A) (A) (A) (A) (A) (A) (A) (A) (A) (A) (A) (A)
                 (A) (A) (A) (A) (A) (A) (A) (A) (A) (A) (A) (A)
                 (A) (A) (A) (A) (A)
 Harris functional with IExCor=  402 diagonalized for initial guess.
 ExpMin= 1.61D-01 ExpMax= 5.48D+03 ExpMxC= 8.25D+02 IAcc=1 IRadAn=         1 AccDes= 0.00D+00
 HarFok:  IExCor=  402 AccDes= 0.00D+00 IRadAn=         1 IDoV= 1
 ScaDFX=  1.000000  1.000000  1.000000  1.000000
 FoFCou: FMM=F IPFlag=           0 FMFlag=      100000 FMFlg1=           0
         NFxFlg=           0 DoJE=T BraDBF=F KetDBF=T FulRan=T
         Omega=  0.000000  0.000000  1.000000  0.000000  0.000000 ICntrl=     500 IOpCl=  0
         NMat0=    1 NMatS0=    1 NMatT0=    0 NMatD0=    1 NMtDS0=    0 NMtDT0=    0
         I1Cent=           4 NGrid=           0.
 Petite list used in FoFCou.
 Requested convergence on RMS density matrix=1.00D-08 within 128 cycles.
 Requested convergence on MAX density matrix=1.00D-06.
 Requested convergence on             energy=1.00D-06.
 No special actions if energy rises.
 Keep R1 ints in memory in canonical form, NReq=1033484324.
