 Entering Gaussian System, Link 0=/data/opt/apps/g09-C01/g09
 Initial command:
 /data/opt/apps/g09-C01/l1.exe /tmp/g09-tuu61186-3073250c21e64fea8x/Gau-3073380.inp -scrdir=/tmp/g09-tuu61186-3073250c21e64fea8x/
 Entering Link 1 = /data/opt/apps/g09-C01/l1.exe PID=   3073388.
  
 Copyright (c) 1988,1990,1992,1993,1995,1998,2003,2009,2011,
            Gaussian, Inc.  All Rights Reserved.
  
 This is part of the Gaussian(R) 09 program.  It is based on
 the Gaussian(R) 03 system (copyright 2003, Gaussian, Inc.),
 the Gaussian(R) 98 system (copyright 1998, Gaussian, Inc.),
 the Gaussian(R) 94 system (copyright 1995, Gaussian, Inc.),
 the Gaussian 92(TM) system (copyright 1992, Gaussian, Inc.),
 the Gaussian 90(TM) system (copyright 1990, Gaussian, Inc.),
 the Gaussian 88(TM) system (copyright 1988, Gaussian, Inc.),
 the Gaussian 86(TM) system (copyright 1986, Carnegie Mellon
 University), and the Gaussian 82(TM) system (copyright 1983,
 Carnegie Mellon University). Gaussian is a federally registered
 trademark of Gaussian, Inc.
  
 This software contains proprietary and confidential information,
 including trade secrets, belonging to Gaussian, Inc.
  
 This software is provided under written license and may be
 used, copied, transmitted, or stored only in accord with that
 written license.
  
 The following legend is applicable only to US Government
 contracts under FAR:
  
                    RESTRICTED RIGHTS LEGEND
  
 Use, reproduction and disclosure by the US Government is
 subject to restrictions as set forth in subparagraphs (a)
 and (c) of the Commercial Computer Software - Restricted
 Rights clause in FAR 52.227-19.
  
 Gaussian, Inc.
 340 Quinnipiac St., Bldg. 40, Wallingford CT 06492
  
  
 ---------------------------------------------------------------
 Warning -- This program may not be used in any manner that
 competes with the business of Gaussian, Inc. or will provide
 assistance to any competitor of Gaussian, Inc.  The licensee
 of this program is prohibited from giving any competitor of
 Gaussian, Inc. access to this program.  By using this program,
 the user acknowledges that Gaussian, Inc. is engaged in the
 business of creating and licensing software in the field of
 computational chemistry and represents and warrants to the
 licensee that it is not a competitor of Gaussian, Inc. and that
 it will not use this program in any manner prohibited above.
 ---------------------------------------------------------------
  

 Cite this work as:
 Gaussian 09, Revision C.01,
 M. J. Frisch, G. W. Trucks, H. B. Schlegel, G. E. Scuseria, 
 M. A. Robb, J. R. Cheeseman, G. Scalmani, V. Barone, B. Mennucci, 
 G. A. Petersson, H. Nakatsuji, M. Caricato, X. Li, H. P. Hratchian, 
 A. F. Izmaylov, J. Bloino, G. Zheng, J. L. Sonnenberg, M. Hada, 
 M. Ehara, K. Toyota, R. Fukuda, J. Hasegawa, M. Ishida, T. Nakajima, 
 Y. Honda, O. Kitao, H. Nakai, T. Vreven, J. A. Montgomery, Jr., 
 J. E. Peralta, F. Ogliaro, M. Bearpark, J. J. Heyd, E. Brothers, 
 K. N. Kudin, V. N. Staroverov, T. Keith, R. Kobayashi, J. Normand, 
 K. Raghavachari, A. Rendell, J. C. Burant, S. S. Iyengar, J. Tomasi, 
 M. Cossi, N. Rega, J. M. Millam, M. Klene, J. E. Knox, J. B. Cross, 
 V. Bakken, C. Adamo, J. Jaramillo, R. Gomperts, R. E. Stratmann, 
 O. Yazyev, A. J. Austin, R. Cammi, C. Pomelli, J. W. Ochterski, 
 R. L. Martin, K. Morokuma, V. G. Zakrzewski, G. A. Voth, 
 P. Salvador, J. J. Dannenberg, S. Dapprich, A. D. Daniels, 
 O. Farkas, J. B. Foresman, J. V. Ortiz, J. Cioslowski, 
 and D. J. Fox, Gaussian, Inc., Wallingford CT, 2010.
 
 ******************************************
 Gaussian 09:  EM64L-G09RevC.01 23-Sep-2011
                24-Apr-2026 
 ******************************************
 %nprocshared=8
 Will use up to    8 processors via shared memory.
 %mem=14GB
 -----------------------------------
 # opt=modredundant b3lyp/6-31g(d,p)
 -----------------------------------
 1/14=-1,18=120,19=15,26=3,38=1/1,3;
 2/9=110,12=2,17=6,18=5,40=1/2;
 3/5=1,6=6,7=101,11=2,16=1,25=1,30=1,71=1,74=-5/1,2,3;
 4//1;
 5/5=2,38=5/2;
 6/7=2,8=2,9=2,10=2,28=1/1;
 7//1,2,3,16;
 1/14=-1,18=20,19=15/3(2);
 2/9=110/2;
 99//99;
 2/9=110/2;
 3/5=1,6=6,7=101,11=2,16=1,25=1,30=1,71=1,74=-5/1,2,3;
 4/5=5,16=3/1;
 5/5=2,38=5/2;
 7//1,2,3,16;
 1/14=-1,18=20,19=15/3(-5);
 2/9=110/2;
 6/7=2,8=2,9=2,10=2,19=2,28=1/1;
 99/9=1/99;
 ---------------
 QM dihedral opt
 ---------------
 Charge =  0 Multiplicity = 1
 Symbolic Z-Matrix:
 C                     3.31178   0.91032  -0.34271 
 C                     1.97576   1.61349  -0.15268 
 O                     1.86767   2.8198   -0.34153 
 N                     0.88298   0.8439    0.21654 
 C                    -0.31195   1.62065   0.59668 
 C                    -1.5775    0.7684    0.73332 
 O                    -1.95247   0.40805   1.84692 
 N                    -2.25713   0.44209  -0.41413 
 C                    -1.88371   0.87999  -1.75187 
 C                    -3.52379  -0.26953  -0.30428 
 H                     3.94499   1.5735   -0.93175 
 H                     3.2268   -0.0573   -0.8428 
 H                     3.79822   0.7463    0.62548 
 H                    -0.16866   2.07416   1.58347 
 H                    -0.42195   2.4336   -0.12054 
 H                    -0.82837   1.14236  -1.79976 
 H                    -2.05469   0.06071  -2.45867 
 H                    -2.48379   1.73936  -2.08126 
 H                    -3.50214  -1.18454  -0.90801 
 H                    -3.684    -0.52412   0.74174 
 H                    -4.35207   0.35741  -0.65847 
 C                     1.04241  -0.50376   0.78471 
 H                     2.05797  -0.64272   1.16075 
 H                     0.37088  -0.60783   1.64017 
 C                     0.74322  -1.6128   -0.22607 
 H                     1.36216  -1.48302  -1.13083 
 H                    -0.31059  -1.56551  -0.5429 
 O                     1.02817  -2.84165   0.40901 
 C                     0.74208  -3.96234  -0.40088 
 H                     0.99318  -4.85386   0.17812 
 H                    -0.3232   -4.00581  -0.6766 
 H                     1.3376   -3.96069  -1.32758 
 
 The following ModRedundant input section has been read:
 D       2       4       5       6 F                                           
 D       4       5       6       8 S  36 10.000                                

 GradGradGradGradGradGradGradGradGradGradGradGradGradGradGradGradGradGrad
 Berny optimization.
 Initialization pass.
                           ----------------------------
                           !    Initial Parameters    !
                           ! (Angstroms and Degrees)  !
 --------------------------                            --------------------------
 ! Name  Definition              Value          Derivative Info.                !
 --------------------------------------------------------------------------------
 ! R1    R(1,2)                  1.5217         estimate D2E/DX2                !
 ! R2    R(1,11)                 1.0898         estimate D2E/DX2                !
 ! R3    R(1,12)                 1.0925         estimate D2E/DX2                !
 ! R4    R(1,13)                 1.0959         estimate D2E/DX2                !
 ! R5    R(2,3)                  1.2258         estimate D2E/DX2                !
 ! R6    R(2,4)                  1.3866         estimate D2E/DX2                !
 ! R7    R(4,5)                  1.475          estimate D2E/DX2                !
 ! R8    R(4,22)                 1.4712         estimate D2E/DX2                !
 ! R9    R(5,6)                  1.5319         estimate D2E/DX2                !
 ! R10   R(5,14)                 1.0954         estimate D2E/DX2                !
 ! R11   R(5,15)                 1.0897         estimate D2E/DX2                !
 ! R12   R(6,7)                  1.229          estimate D2E/DX2                !
 ! R13   R(6,8)                  1.373          estimate D2E/DX2                !
 ! R14   R(8,9)                  1.4563         estimate D2E/DX2                !
 ! R15   R(8,10)                 1.457          estimate D2E/DX2                !
 ! R16   R(9,16)                 1.0885         estimate D2E/DX2                !
 ! R17   R(9,17)                 1.0954         estimate D2E/DX2                !
 ! R18   R(9,18)                 1.0987         estimate D2E/DX2                !
 ! R19   R(10,19)                1.0965         estimate D2E/DX2                !
 ! R20   R(10,20)                1.0884         estimate D2E/DX2                !
 ! R21   R(10,21)                1.0975         estimate D2E/DX2                !
 ! R22   R(22,23)                1.0918         estimate D2E/DX2                !
 ! R23   R(22,24)                1.0925         estimate D2E/DX2                !
 ! R24   R(22,25)                1.5301         estimate D2E/DX2                !
 ! R25   R(25,26)                1.1039         estimate D2E/DX2                !
 ! R26   R(25,27)                1.1014         estimate D2E/DX2                !
 ! R27   R(25,28)                1.4123         estimate D2E/DX2                !
 ! R28   R(28,29)                1.412          estimate D2E/DX2                !
 ! R29   R(29,30)                1.0923         estimate D2E/DX2                !
 ! R30   R(29,31)                1.1012         estimate D2E/DX2                !
 ! R31   R(29,32)                1.1016         estimate D2E/DX2                !
 ! A1    A(2,1,11)             107.2436         estimate D2E/DX2                !
 ! A2    A(2,1,12)             113.4622         estimate D2E/DX2                !
 ! A3    A(2,1,13)             110.3994         estimate D2E/DX2                !
 ! A4    A(11,1,12)            109.6779         estimate D2E/DX2                !
 ! A5    A(11,1,13)            108.1013         estimate D2E/DX2                !
 ! A6    A(12,1,13)            107.8405         estimate D2E/DX2                !
 ! A7    A(1,2,3)              120.8604         estimate D2E/DX2                !
 ! A8    A(1,2,4)              117.9508         estimate D2E/DX2                !
 ! A9    A(3,2,4)              121.1789         estimate D2E/DX2                !
 ! A10   A(2,4,5)              114.5059         estimate D2E/DX2                !
 ! A11   A(2,4,22)             121.7244         estimate D2E/DX2                !
 ! A12   A(5,4,22)             118.0759         estimate D2E/DX2                !
 ! A13   A(4,5,6)              113.5336         estimate D2E/DX2                !
 ! A14   A(4,5,14)             110.1333         estimate D2E/DX2                !
 ! A15   A(4,5,15)             107.76           estimate D2E/DX2                !
 ! A16   A(6,5,14)             104.9532         estimate D2E/DX2                !
 ! A17   A(6,5,15)             112.9775         estimate D2E/DX2                !
 ! A18   A(14,5,15)            107.2933         estimate D2E/DX2                !
 ! A19   A(5,6,7)              119.7353         estimate D2E/DX2                !
 ! A20   A(5,6,8)              117.8154         estimate D2E/DX2                !
 ! A21   A(7,6,8)              122.4484         estimate D2E/DX2                !
 ! A22   A(6,8,9)              124.7031         estimate D2E/DX2                !
 ! A23   A(6,8,10)             118.9078         estimate D2E/DX2                !
 ! A24   A(9,8,10)             116.0431         estimate D2E/DX2                !
 ! A25   A(8,9,16)             111.1924         estimate D2E/DX2                !
 ! A26   A(8,9,17)             109.1341         estimate D2E/DX2                !
 ! A27   A(8,9,18)             111.7493         estimate D2E/DX2                !
 ! A28   A(16,9,17)            107.6502         estimate D2E/DX2                !
 ! A29   A(16,9,18)            109.1358         estimate D2E/DX2                !
 ! A30   A(17,9,18)            107.8364         estimate D2E/DX2                !
 ! A31   A(8,10,19)            110.4203         estimate D2E/DX2                !
 ! A32   A(8,10,20)            108.3411         estimate D2E/DX2                !
 ! A33   A(8,10,21)            110.6562         estimate D2E/DX2                !
 ! A34   A(19,10,20)           109.687          estimate D2E/DX2                !
 ! A35   A(19,10,21)           108.2952         estimate D2E/DX2                !
 ! A36   A(20,10,21)           109.431          estimate D2E/DX2                !
 ! A37   A(4,22,23)            110.5107         estimate D2E/DX2                !
 ! A38   A(4,22,24)            108.8471         estimate D2E/DX2                !
 ! A39   A(4,22,25)            112.8082         estimate D2E/DX2                !
 ! A40   A(23,22,24)           106.8536         estimate D2E/DX2                !
 ! A41   A(23,22,25)           108.4907         estimate D2E/DX2                !
 ! A42   A(24,22,25)           109.1499         estimate D2E/DX2                !
 ! A43   A(22,25,26)           110.2795         estimate D2E/DX2                !
 ! A44   A(22,25,27)           110.2418         estimate D2E/DX2                !
 ! A45   A(22,25,28)           107.1072         estimate D2E/DX2                !
 ! A46   A(26,25,27)           107.1964         estimate D2E/DX2                !
 ! A47   A(26,25,28)           110.9612         estimate D2E/DX2                !
 ! A48   A(27,25,28)           111.0851         estimate D2E/DX2                !
 ! A49   A(25,28,29)           113.0661         estimate D2E/DX2                !
 ! A50   A(28,29,30)           107.2887         estimate D2E/DX2                !
 ! A51   A(28,29,31)           111.7737         estimate D2E/DX2                !
 ! A52   A(28,29,32)           111.8271         estimate D2E/DX2                !
 ! A53   A(30,29,31)           108.8372         estimate D2E/DX2                !
 ! A54   A(30,29,32)           108.8372         estimate D2E/DX2                !
 ! A55   A(31,29,32)           108.2031         estimate D2E/DX2                !
 ! D1    D(11,1,2,3)           -17.2563         estimate D2E/DX2                !
 ! D2    D(11,1,2,4)           161.616          estimate D2E/DX2                !
 ! D3    D(12,1,2,3)          -138.5264         estimate D2E/DX2                !
 ! D4    D(12,1,2,4)            40.3459         estimate D2E/DX2                !
 ! D5    D(13,1,2,3)           100.2931         estimate D2E/DX2                !
 ! D6    D(13,1,2,4)           -80.8346         estimate D2E/DX2                !
 ! D7    D(1,2,4,5)            170.3389         estimate D2E/DX2                !
 ! D8    D(1,2,4,22)            17.4785         estimate D2E/DX2                !
 ! D9    D(3,2,4,5)            -10.7926         estimate D2E/DX2                !
 ! D10   D(3,2,4,22)          -163.653          estimate D2E/DX2                !
 ! D11   D(2,4,5,6)            168.6698         Frozen                          !
 ! D12   D(2,4,5,14)           -73.9808         estimate D2E/DX2                !
 ! D13   D(2,4,5,15)            42.7549         estimate D2E/DX2                !
 ! D14   D(22,4,5,6)           -37.4181         estimate D2E/DX2                !
 ! D15   D(22,4,5,14)           79.9313         estimate D2E/DX2                !
 ! D16   D(22,4,5,15)         -163.333          estimate D2E/DX2                !
 ! D17   D(2,4,22,23)           18.6261         estimate D2E/DX2                !
 ! D18   D(2,4,22,24)          135.6772         estimate D2E/DX2                !
 ! D19   D(2,4,22,25)         -103.0192         estimate D2E/DX2                !
 ! D20   D(5,4,22,23)         -133.312          estimate D2E/DX2                !
 ! D21   D(5,4,22,24)          -16.2609         estimate D2E/DX2                !
 ! D22   D(5,4,22,25)          105.0427         estimate D2E/DX2                !
 ! D23   D(4,5,6,7)             99.2683         estimate D2E/DX2                !
 ! D24   D(4,5,6,8)            -81.0719         Scan                            !
 ! D25   D(14,5,6,7)           -21.0567         estimate D2E/DX2                !
 ! D26   D(14,5,6,8)           158.6032         estimate D2E/DX2                !
 ! D27   D(15,5,6,7)          -137.6362         estimate D2E/DX2                !
 ! D28   D(15,5,6,8)            42.0236         estimate D2E/DX2                !
 ! D29   D(5,6,8,9)             -1.8615         estimate D2E/DX2                !
 ! D30   D(5,6,8,10)          -174.8262         estimate D2E/DX2                !
 ! D31   D(7,6,8,9)            177.7885         estimate D2E/DX2                !
 ! D32   D(7,6,8,10)             4.8238         estimate D2E/DX2                !
 ! D33   D(6,8,9,16)            22.8722         estimate D2E/DX2                !
 ! D34   D(6,8,9,17)           141.4749         estimate D2E/DX2                !
 ! D35   D(6,8,9,18)           -99.3505         estimate D2E/DX2                !
 ! D36   D(10,8,9,16)         -163.9816         estimate D2E/DX2                !
 ! D37   D(10,8,9,17)          -45.3789         estimate D2E/DX2                !
 ! D38   D(10,8,9,18)           73.7957         estimate D2E/DX2                !
 ! D39   D(6,8,10,19)         -125.8168         estimate D2E/DX2                !
 ! D40   D(6,8,10,20)           -5.6756         estimate D2E/DX2                !
 ! D41   D(6,8,10,21)          114.2935         estimate D2E/DX2                !
 ! D42   D(9,8,10,19)           60.618          estimate D2E/DX2                !
 ! D43   D(9,8,10,20)         -179.2408         estimate D2E/DX2                !
 ! D44   D(9,8,10,21)          -59.2717         estimate D2E/DX2                !
 ! D45   D(4,22,25,26)          54.8479         estimate D2E/DX2                !
 ! D46   D(4,22,25,27)         -63.3286         estimate D2E/DX2                !
 ! D47   D(4,22,25,28)         175.6954         estimate D2E/DX2                !
 ! D48   D(23,22,25,26)        -67.9328         estimate D2E/DX2                !
 ! D49   D(23,22,25,27)        173.8907         estimate D2E/DX2                !
 ! D50   D(23,22,25,28)         52.9147         estimate D2E/DX2                !
 ! D51   D(24,22,25,26)        175.9795         estimate D2E/DX2                !
 ! D52   D(24,22,25,27)         57.803          estimate D2E/DX2                !
 ! D53   D(24,22,25,28)        -63.1729         estimate D2E/DX2                !
 ! D54   D(22,25,28,29)        177.586          estimate D2E/DX2                !
 ! D55   D(26,25,28,29)        -61.9997         estimate D2E/DX2                !
 ! D56   D(27,25,28,29)         57.1455         estimate D2E/DX2                !
 ! D57   D(25,28,29,30)       -179.8924         estimate D2E/DX2                !
 ! D58   D(25,28,29,31)        -60.6528         estimate D2E/DX2                !
 ! D59   D(25,28,29,32)         60.8371         estimate D2E/DX2                !
 --------------------------------------------------------------------------------
 Trust Radius=3.00D-01 FncErr=1.00D-07 GrdErr=1.00D-06
 Number of optimizations in scan=  37
 Number of steps in this run=    155 maximum allowed number of steps=    192.
 GradGradGradGradGradGradGradGradGradGradGradGradGradGradGradGradGradGrad

                          Input orientation:                          
 ---------------------------------------------------------------------
 Center     Atomic      Atomic             Coordinates (Angstroms)
 Number     Number       Type             X           Y           Z
 ---------------------------------------------------------------------
      1          6           0        3.311778    0.910324   -0.342707
      2          6           0        1.975763    1.613490   -0.152679
      3          8           0        1.867666    2.819796   -0.341527
      4          7           0        0.882982    0.843904    0.216544
      5          6           0       -0.311945    1.620652    0.596675
      6          6           0       -1.577503    0.768399    0.733324
      7          8           0       -1.952471    0.408047    1.846917
      8          7           0       -2.257133    0.442088   -0.414134
      9          6           0       -1.883710    0.879987   -1.751869
     10          6           0       -3.523788   -0.269529   -0.304278
     11          1           0        3.944992    1.573498   -0.931754
     12          1           0        3.226800   -0.057303   -0.842798
     13          1           0        3.798215    0.746297    0.625481
     14          1           0       -0.168663    2.074156    1.583465
     15          1           0       -0.421954    2.433598   -0.120538
     16          1           0       -0.828373    1.142357   -1.799760
     17          1           0       -2.054690    0.060712   -2.458666
     18          1           0       -2.483790    1.739360   -2.081259
     19          1           0       -3.502136   -1.184543   -0.908010
     20          1           0       -3.684003   -0.524118    0.741743
     21          1           0       -4.352073    0.357411   -0.658465
     22          6           0        1.042405   -0.503763    0.784714
     23          1           0        2.057972   -0.642715    1.160750
     24          1           0        0.370883   -0.607825    1.640168
     25          6           0        0.743221   -1.612801   -0.226070
     26          1           0        1.362162   -1.483021   -1.130832
     27          1           0       -0.310590   -1.565506   -0.542896
     28          8           0        1.028171   -2.841650    0.409008
     29          6           0        0.742078   -3.962340   -0.400879
     30          1           0        0.993181   -4.853858    0.178121
     31          1           0       -0.323195   -4.005811   -0.676603
     32          1           0        1.337597   -3.960691   -1.327582
 ---------------------------------------------------------------------
                    Distance matrix (angstroms):
                    1          2          3          4          5
     1  C    0.000000
     2  C    1.521673   0.000000
     3  O    2.394064   1.225774   0.000000
     4  N    2.493236   1.386636   2.277102   0.000000
     5  C    3.810298   2.407320   2.658735   1.475021   0.000000
     6  C    5.008299   3.758308   4.151232   2.515303   1.531876
     7  O    5.723552   4.569737   5.019887   3.299679   2.392664
     8  N    5.589017   4.399767   4.761589   3.227930   2.488876
     9  C    5.383285   4.241576   4.452499   3.395664   2.921419
    10  C    6.936749   5.814964   6.213943   4.574998   3.834115
    11  H    1.089833   2.118117   2.493373   3.350642   4.523255
    12  H    1.092527   2.198387   3.221214   2.725410   4.172569
    13  H    1.095862   2.163074   2.993580   2.945393   4.202231
    14  H    4.144649   2.797315   2.899691   2.118478   1.095422
    15  H    4.038623   2.534296   2.332455   2.084133   1.089669
    16  H    4.395190   3.286034   3.494120   2.661445   2.497672
    17  H    5.830789   4.896248   5.242108   4.049698   3.847815
    18  H    6.107248   4.860337   4.809280   4.173355   3.449976
    19  H    7.151046   6.197329   6.722381   4.960693   4.506719
    20  H    7.223199   6.115743   6.570865   4.796318   3.998982
    21  H    7.690255   6.471094   6.696935   5.329927   4.415177
    22  C    2.901857   2.496522   3.604930   1.471203   2.526413
    23  H    2.498868   2.611956   3.779158   2.117112   3.325285
    24  H    3.858164   3.274779   4.232737   2.096776   2.553672
    25  C    3.602395   3.454490   4.574453   2.500168   3.499358
    26  H    3.185945   3.304795   4.403722   2.731230   3.926793
    27  H    4.392193   3.935187   4.900635   2.794033   3.383818
    28  O    4.456147   4.589302   5.772350   3.693431   4.662968
    29  C    5.509047   5.716071   6.875161   4.847788   5.768525
    30  H    6.234817   6.549923   7.740783   5.698957   6.617992
    31  H    6.123145   6.093952   7.176424   5.076644   5.768748
    32  H    5.347350   5.732290   6.872284   5.067064   6.129857
                    6          7          8          9         10
     6  C    0.000000
     7  O    1.229042   0.000000
     8  N    1.372966   2.281738   0.000000
     9  C    2.506471   3.630250   1.456274   0.000000
    10  C    2.437609   2.748779   1.457011   2.471186   0.000000
    11  H    5.823969   6.622640   6.325692   5.926830   7.718364
    12  H    5.123209   5.854568   5.523284   5.274679   6.775358
    13  H    5.376845   5.888693   6.151470   6.160677   7.450375
    14  H    2.100612   2.455055   3.318999   3.935972   4.507027
    15  H    2.199378   3.211887   2.724003   2.685457   4.118499
    16  H    2.667875   3.886008   2.109903   1.088516   3.390450
    17  H    3.304138   4.320779   2.089627   1.095449   2.628440
    18  H    3.112234   4.181538   2.124522   1.098688   2.876611
    19  H    3.195649   3.539411   2.107101   2.755664   1.096454
    20  H    2.471440   2.255780   2.074985   3.380927   1.088414
    21  H    3.131170   3.469523   2.110839   2.749806   1.097524
    22  C    2.912895   3.305897   3.635770   4.112319   4.700094
    23  H    3.923087   4.202211   4.719872   5.132137   5.782873
    24  H    2.551973   2.544153   3.496990   4.336207   4.366208
    25  C    3.460681   3.955737   3.641437   3.929735   4.474133
    26  H    4.145552   4.840446   4.161610   4.062657   5.101790
    27  H    2.946340   3.507405   2.799293   3.149088   3.472915
    28  O    4.463986   4.638140   4.717385   5.196058   5.276828
    29  C    5.389505   5.604772   5.328642   5.671690   5.643031
    30  H    6.206967   6.256947   6.241983   6.699130   6.453820
    31  H    5.133640   5.338992   4.857243   5.240460   4.933784
    32  H    5.925321   6.323596   5.756816   5.830009   6.189095
                   11         12         13         14         15
    11  H    0.000000
    12  H    1.784159   0.000000
    13  H    1.769403   1.768652   0.000000
    14  H    4.847591   4.686047   4.291511   0.000000
    15  H    4.524164   4.476567   4.605796   1.759824   0.000000
    16  H    4.870763   4.335826   5.238700   3.570669   2.156911
    17  H    6.373081   5.524409   6.651202   4.893861   3.709886
    18  H    6.532849   6.113315   6.912033   4.347655   2.928747
    19  H    7.941478   6.823013   7.705509   5.285699   4.816490
    20  H    8.087160   7.105483   7.590195   4.451645   4.486934
    21  H    8.390163   7.592449   8.259960   5.047215   4.477248
    22  C    3.960592   2.760381   3.030263   2.958100   3.404691
    23  H    3.584832   2.392294   2.290046   3.538076   4.153966
    24  H    4.913981   3.824194   3.822282   2.736302   3.602628
    25  C    4.571852   2.994677   3.952654   4.207089   4.212139
    26  H    4.006613   2.364849   3.740167   4.729095   4.420822
    27  H    5.302314   3.857168   4.857141   4.217665   4.022887
    28  O    5.458848   3.762124   4.537992   5.193930   5.496501
    29  C    6.417631   4.649564   5.706545   6.419218   6.507041
    30  H    7.159324   5.388717   6.279338   7.163955   7.429591
    31  H    7.029311   5.312325   6.423704   6.488281   6.464128
    32  H    6.130452   4.363547   5.659049   6.867488   6.740913
                   16         17         18         19         20
    16  H    0.000000
    17  H    1.762943   0.000000
    18  H    1.782150   1.773252   0.000000
    19  H    3.654954   2.459735   3.311004   0.000000
    20  H    4.170252   3.638586   3.812241   1.786315   0.000000
    21  H    3.786180   2.933722   2.724813   1.778282   1.784375
    22  C    3.590129   4.519972   5.067490   4.897104   4.726647
    23  H    4.503564   5.523493   6.067331   5.957193   5.758464
    24  H    4.041591   4.809448   5.244755   4.671840   4.154067
    25  C    3.540805   3.951384   5.009222   4.321053   4.660709
    26  H    3.484038   3.977579   5.106701   4.878538   5.467158
    27  H    3.029906   3.058863   4.243996   3.234874   3.756954
    28  O    4.919118   5.113833   6.286569   5.000422   5.261773
    29  C    5.520971   5.314259   6.763082   5.097714   5.719891
    30  H    6.571504   6.355719   7.788751   5.903510   6.398466
    31  H    5.293422   4.765546   6.296683   4.256615   5.042710
    32  H    5.563765   5.381324   6.903739   5.595181   6.427177
                   21         22         23         24         25
    21  H    0.000000
    22  C    5.650202   0.000000
    23  H    6.737839   1.091827   0.000000
    24  H    5.340572   1.092507   1.754232   0.000000
    25  C    5.480029   1.530085   2.143107   2.152082   0.000000
    26  H    6.021860   2.174973   2.538033   3.070349   1.103868
    27  H    4.477114   2.172658   3.060072   2.479380   1.101423
    28  O    6.349844   2.367926   2.541834   2.633962   1.412300
    29  C    6.684084   3.668458   3.897457   3.944164   2.356033
    30  H    7.511920   4.392460   4.453433   4.533611   3.275714
    31  H    5.938846   4.032946   4.511789   4.170789   2.658330
    32  H    7.173985   4.061931   4.209478   4.580806   2.660676
                   26         27         28         29         30
    26  H    0.000000
    27  H    1.774985   0.000000
    28  O    2.080512   2.080131   0.000000
    29  C    2.657886   2.621658   1.411989   0.000000
    30  H    3.634838   3.610117   2.025713   1.092290   0.000000
    31  H    3.067771   2.443998   2.088064   1.101236   1.783979
    32  H    2.485591   3.011505   2.088957   1.101555   1.784240
                   31         32
    31  H    0.000000
    32  H    1.784388   0.000000
 Stoichiometry    C9H18N2O3
 Framework group  C1[X(C9H18N2O3)]
 Deg. of freedom    90
 Full point group                 C1      NOp   1
 Largest Abelian subgroup         C1      NOp   1
 Largest concise Abelian subgroup C1      NOp   1
                         Standard orientation:                         
 ---------------------------------------------------------------------
 Center     Atomic      Atomic             Coordinates (Angstroms)
 Number     Number       Type             X           Y           Z
 ---------------------------------------------------------------------
      1          6           0        3.311778   -0.910324    0.342707
      2          6           0        1.975763   -1.613490    0.152679
      3          8           0        1.867666   -2.819796    0.341527
      4          7           0        0.882982   -0.843904   -0.216544
      5          6           0       -0.311945   -1.620652   -0.596675
      6          6           0       -1.577503   -0.768399   -0.733324
      7          8           0       -1.952471   -0.408047   -1.846917
      8          7           0       -2.257133   -0.442088    0.414134
      9          6           0       -1.883710   -0.879987    1.751869
     10          6           0       -3.523788    0.269529    0.304278
     11          1           0        3.944992   -1.573498    0.931754
     12          1           0        3.226800    0.057303    0.842798
     13          1           0        3.798215   -0.746297   -0.625481
     14          1           0       -0.168663   -2.074156   -1.583465
     15          1           0       -0.421954   -2.433598    0.120538
     16          1           0       -0.828373   -1.142357    1.799760
     17          1           0       -2.054690   -0.060712    2.458666
     18          1           0       -2.483790   -1.739360    2.081259
     19          1           0       -3.502136    1.184543    0.908010
     20          1           0       -3.684003    0.524118   -0.741743
     21          1           0       -4.352073   -0.357411    0.658465
     22          6           0        1.042405    0.503763   -0.784714
     23          1           0        2.057972    0.642715   -1.160750
     24          1           0        0.370883    0.607825   -1.640168
     25          6           0        0.743221    1.612801    0.226070
     26          1           0        1.362162    1.483021    1.130832
     27          1           0       -0.310590    1.565506    0.542896
     28          8           0        1.028171    2.841650   -0.409008
     29          6           0        0.742078    3.962340    0.400879
     30          1           0        0.993181    4.853858   -0.178121
     31          1           0       -0.323195    4.005811    0.676603
     32          1           0        1.337597    3.960691    1.327582
 ---------------------------------------------------------------------
 Rotational constants (GHZ):      0.6205992      0.5613944      0.3572288
 Standard basis: 6-31G(d,p) (6D, 7F)
 There are   300 symmetry adapted basis functions of A   symmetry.
 Integral buffers will be    131072 words long.
 Raffenetti 2 integral format.
 Two-electron integral symmetry is turned on.
   300 basis functions,   518 primitive gaussians,   300 cartesian basis functions
    55 alpha electrons       55 beta electrons
       nuclear repulsion energy       982.9087816327 Hartrees.
 NAtoms=   32 NActive=   32 NUniq=   32 SFac= 1.00D+00 NAtFMM=   60 NAOKFM=F Big=F
 One-electron integrals computed using PRISM.
 NBasis=   300 RedAO= T  NBF=   300
 NBsUse=   300 1.00D-06 NBFU=   300
 Harris functional with IExCor=  402 diagonalized for initial guess.
 ExpMin= 1.61D-01 ExpMax= 5.48D+03 ExpMxC= 8.25D+02 IAcc=1 IRadAn=         1 AccDes= 0.00D+00
 HarFok:  IExCor=  402 AccDes= 0.00D+00 IRadAn=         1 IDoV= 1
 ScaDFX=  1.000000  1.000000  1.000000  1.000000
 FoFCou: FMM=F IPFlag=           0 FMFlag=      100000 FMFlg1=           0
         NFxFlg=           0 DoJE=T BraDBF=F KetDBF=T FulRan=T
         Omega=  0.000000  0.000000  1.000000  0.000000  0.000000 ICntrl=     500 IOpCl=  0
         NMat0=    1 NMatS0=    1 NMatT0=    0 NMatD0=    1 NMtDS0=    0 NMtDT0=    0
         I1Cent=           4 NGrid=           0.
 Petite list used in FoFCou.
 Initial guess orbital symmetries:
       Occupied  (A) (A) (A) (A) (A) (A) (A) (A) (A) (A) (A) (A)
                 (A) (A) (A) (A) (A) (A) (A) (A) (A) (A) (A) (A)
                 (A) (A) (A) (A) (A) (A) (A) (A) (A) (A) (A) (A)
                 (A) (A) (A) (A) (A) (A) (A) (A) (A) (A) (A) (A)
                 (A) (A) (A) (A) (A) (A) (A)
       Virtual   (A) (A) (A) (A) (A) (A) (A) (A) (A) (A) (A) (A)
                 (A) (A) (A) (A) (A) (A) (A) (A) (A) (A) (A) (A)
                 (A) (A) (A) (A) (A) (A) (A) (A) (A) (A) (A) (A)
                 (A) (A) (A) (A) (A) (A) (A) (A) (A) (A) (A) (A)
                 (A) (A) (A) (A) (A) (A) (A) (A) (A) (A) (A) (A)
                 (A) (A) (A) (A) (A) (A) (A) (A) (A) (A) (A) (A)
                 (A) (A) (A) (A) (A) (A) (A) (A) (A) (A) (A) (A)
                 (A) (A) (A) (A) (A) (A) (A) (A) (A) (A) (A) (A)
                 (A) (A) (A) (A) (A) (A) (A) (A) (A) (A) (A) (A)
                 (A) (A) (A) (A) (A) (A) (A) (A) (A) (A) (A) (A)
                 (A) (A) (A) (A) (A) (A) (A) (A) (A) (A) (A) (A)
                 (A) (A) (A) (A) (A) (A) (A) (A) (A) (A) (A) (A)
                 (A) (A) (A) (A) (A) (A) (A) (A) (A) (A) (A) (A)
                 (A) (A) (A) (A) (A) (A) (A) (A) (A) (A) (A) (A)
                 (A) (A) (A) (A) (A) (A) (A) (A) (A) (A) (A) (A)
                 (A) (A) (A) (A) (A) (A) (A) (A) (A) (A) (A) (A)
                 (A) (A) (A) (A) (A) (A) (A) (A) (A) (A) (A) (A)
                 (A) (A) (A) (A) (A) (A) (A) (A) (A) (A) (A) (A)
                 (A) (A) (A) (A) (A) (A) (A) (A) (A) (A) (A) (A)
                 (A) (A) (A) (A) (A) (A) (A) (A) (A) (A) (A) (A)
                 (A) (A) (A) (A) (A)
 The electronic state of the initial guess is 1-A.
 Requested convergence on RMS density matrix=1.00D-08 within 128 cycles.
 Requested convergence on MAX density matrix=1.00D-06.
 Requested convergence on             energy=1.00D-06.
 No special actions if energy rises.
 Keep R1 ints in memory in canonical form, NReq=1033483420.
 Integral accuracy reduced to 1.0D-05 until final iterations.
 Initial convergence to 1.0D-05 achieved.  Increase integral accuracy.
 SCF Done:  E(RB3LYP) =  -688.991661893     A.U. after   15 cycles
             Convg  =    0.6701D-08             -V/T =  2.0093

 **********************************************************************

            Population analysis using the SCF density.

 **********************************************************************

 Orbital symmetries:
       Occupied  (A) (A) (A) (A) (A) (A) (A) (A) (A) (A) (A) (A)
                 (A) (A) (A) (A) (A) (A) (A) (A) (A) (A) (A) (A)
                 (A) (A) (A) (A) (A) (A) (A) (A) (A) (A) (A) (A)
                 (A) (A) (A) (A) (A) (A) (A) (A) (A) (A) (A) (A)
                 (A) (A) (A) (A) (A) (A) (A)
       Virtual   (A) (A) (A) (A) (A) (A) (A) (A) (A) (A) (A) (A)
                 (A) (A) (A) (A) (A) (A) (A) (A) (A) (A) (A) (A)
                 (A) (A) (A) (A) (A) (A) (A) (A) (A) (A) (A) (A)
                 (A) (A) (A) (A) (A) (A) (A) (A) (A) (A) (A) (A)
                 (A) (A) (A) (A) (A) (A) (A) (A) (A) (A) (A) (A)
                 (A) (A) (A) (A) (A) (A) (A) (A) (A) (A) (A) (A)
                 (A) (A) (A) (A) (A) (A) (A) (A) (A) (A) (A) (A)
                 (A) (A) (A) (A) (A) (A) (A) (A) (A) (A) (A) (A)
                 (A) (A) (A) (A) (A) (A) (A) (A) (A) (A) (A) (A)
                 (A) (A) (A) (A) (A) (A) (A) (A) (A) (A) (A) (A)
                 (A) (A) (A) (A) (A) (A) (A) (A) (A) (A) (A) (A)
                 (A) (A) (A) (A) (A) (A) (A) (A) (A) (A) (A) (A)
                 (A) (A) (A) (A) (A) (A) (A) (A) (A) (A) (A) (A)
                 (A) (A) (A) (A) (A) (A) (A) (A) (A) (A) (A) (A)
                 (A) (A) (A) (A) (A) (A) (A) (A) (A) (A) (A) (A)
                 (A) (A) (A) (A) (A) (A) (A) (A) (A) (A) (A) (A)
                 (A) (A) (A) (A) (A) (A) (A) (A) (A) (A) (A) (A)
                 (A) (A) (A) (A) (A) (A) (A) (A) (A) (A) (A) (A)
                 (A) (A) (A) (A) (A) (A) (A) (A) (A) (A) (A) (A)
                 (A) (A) (A) (A) (A) (A) (A) (A) (A) (A) (A) (A)
                 (A) (A) (A) (A) (A)
 The electronic state is 1-A.
 Alpha  occ. eigenvalues --  -19.15634 -19.11429 -19.11298 -14.37369 -14.36932
 Alpha  occ. eigenvalues --  -10.28916 -10.28784 -10.23928 -10.23446 -10.23069
 Alpha  occ. eigenvalues --  -10.22474 -10.22385 -10.21825 -10.19322  -1.04080
 Alpha  occ. eigenvalues --   -1.03687  -1.03121  -0.93875  -0.93104  -0.77367
 Alpha  occ. eigenvalues --   -0.75628  -0.73271  -0.71794  -0.68795  -0.67091
 Alpha  occ. eigenvalues --   -0.62469  -0.55715  -0.54900  -0.51873  -0.50205
 Alpha  occ. eigenvalues --   -0.48830  -0.48427  -0.47867  -0.46987  -0.46479
 Alpha  occ. eigenvalues --   -0.45233  -0.44207  -0.42266  -0.42017  -0.41262
 Alpha  occ. eigenvalues --   -0.40916  -0.40762  -0.39938  -0.38977  -0.38398
 Alpha  occ. eigenvalues --   -0.37714  -0.36416  -0.36361  -0.35063  -0.32678
 Alpha  occ. eigenvalues --   -0.26397  -0.25579  -0.25151  -0.24635  -0.24002
 Alpha virt. eigenvalues --    0.01101   0.02058   0.06583   0.08611   0.08942
 Alpha virt. eigenvalues --    0.12113   0.12392   0.12844   0.13572   0.13714
 Alpha virt. eigenvalues --    0.14384   0.15293   0.15754   0.15917   0.16205
 Alpha virt. eigenvalues --    0.16405   0.17141   0.17371   0.18432   0.18497
 Alpha virt. eigenvalues --    0.19287   0.20358   0.21540   0.21846   0.22267
 Alpha virt. eigenvalues --    0.22869   0.26136   0.27061   0.28316   0.32813
 Alpha virt. eigenvalues --    0.35631   0.36718   0.40545   0.47424   0.47594
 Alpha virt. eigenvalues --    0.49593   0.50088   0.50496   0.52231   0.53250
 Alpha virt. eigenvalues --    0.53470   0.55569   0.55786   0.56089   0.58158
 Alpha virt. eigenvalues --    0.59230   0.61563   0.62141   0.62484   0.65423
 Alpha virt. eigenvalues --    0.66812   0.66980   0.69387   0.69436   0.70853
 Alpha virt. eigenvalues --    0.73085   0.73957   0.75442   0.75863   0.76481
 Alpha virt. eigenvalues --    0.77840   0.80067   0.80634   0.82067   0.82447
 Alpha virt. eigenvalues --    0.83167   0.83662   0.84402   0.85116   0.86238
 Alpha virt. eigenvalues --    0.86620   0.87256   0.88307   0.89479   0.89939
 Alpha virt. eigenvalues --    0.90800   0.92438   0.92826   0.93959   0.94383
 Alpha virt. eigenvalues --    0.95902   0.97548   0.97997   0.98491   1.00474
 Alpha virt. eigenvalues --    1.01300   1.02511   1.05827   1.07346   1.11051
 Alpha virt. eigenvalues --    1.13686   1.14029   1.17335   1.18752   1.20224
 Alpha virt. eigenvalues --    1.25546   1.27169   1.28135   1.29308   1.31955
 Alpha virt. eigenvalues --    1.35514   1.36622   1.37913   1.38502   1.39379
 Alpha virt. eigenvalues --    1.41473   1.43715   1.46749   1.50106   1.53112
 Alpha virt. eigenvalues --    1.55494   1.58822   1.59969   1.63048   1.63113
 Alpha virt. eigenvalues --    1.69329   1.70727   1.71187   1.71581   1.73133
 Alpha virt. eigenvalues --    1.75887   1.76231   1.78490   1.81626   1.82125
 Alpha virt. eigenvalues --    1.83437   1.86438   1.87177   1.87391   1.87990
 Alpha virt. eigenvalues --    1.88782   1.89548   1.91445   1.93018   1.94087
 Alpha virt. eigenvalues --    1.94513   1.96251   1.97215   1.98208   2.00216
 Alpha virt. eigenvalues --    2.00442   2.01999   2.02205   2.02448   2.02675
 Alpha virt. eigenvalues --    2.02748   2.03575   2.04471   2.05164   2.06432
 Alpha virt. eigenvalues --    2.08141   2.08914   2.09341   2.10180   2.11090
 Alpha virt. eigenvalues --    2.11703   2.14620   2.16127   2.17484   2.20999
 Alpha virt. eigenvalues --    2.22298   2.23375   2.27892   2.28276   2.29610
 Alpha virt. eigenvalues --    2.30648   2.32455   2.33780   2.38166   2.39946
 Alpha virt. eigenvalues --    2.41430   2.43972   2.47737   2.49723   2.51450
 Alpha virt. eigenvalues --    2.51918   2.53170   2.55500   2.55912   2.58285
 Alpha virt. eigenvalues --    2.58803   2.61118   2.62552   2.62866   2.63971
 Alpha virt. eigenvalues --    2.65035   2.67698   2.68555   2.68999   2.70158
 Alpha virt. eigenvalues --    2.70487   2.71271   2.73749   2.73966   2.78973
 Alpha virt. eigenvalues --    2.79862   2.81201   2.83595   2.84221   2.85663
 Alpha virt. eigenvalues --    2.87076   2.88140   2.89260   2.90193   2.91932
 Alpha virt. eigenvalues --    2.95879   2.97505   2.98983   3.04628   3.07463
 Alpha virt. eigenvalues --    3.10944   3.11335   3.14001   3.16914   3.17682
 Alpha virt. eigenvalues --    3.23620   3.23966   3.26982   3.34035   3.36291
 Alpha virt. eigenvalues --    3.38833   3.39222   3.42007   3.42745   3.42769
 Alpha virt. eigenvalues --    3.43726   3.43848   3.45514   3.48071   3.49935
 Alpha virt. eigenvalues --    3.55939   3.95724   4.01909   4.05954   4.12064
 Alpha virt. eigenvalues --    4.18701   4.32219   4.37461   4.40276   4.44861
 Alpha virt. eigenvalues --    4.50184   4.52375   4.60829   4.71276   4.72663
          Condensed to atoms (all electrons):
              1          2          3          4          5          6
     1  C    5.138195   0.359685  -0.078269  -0.121591   0.006420  -0.000017
     2  C    0.359685   4.373868   0.581008   0.254050  -0.025253   0.004631
     3  O   -0.078269   0.581008   8.075431  -0.103128   0.004675   0.001155
     4  N   -0.121591   0.254050  -0.103128   7.162350   0.253119  -0.035552
     5  C    0.006420  -0.025253   0.004675   0.253119   5.020876   0.315848
     6  C   -0.000017   0.004631   0.001155  -0.035552   0.315848   4.482229
     7  O    0.000000  -0.000197  -0.000002  -0.001230  -0.073457   0.537337
     8  N    0.000000   0.000009   0.000013   0.004183  -0.109283   0.267012
     9  C   -0.000008  -0.000407  -0.000111  -0.004623   0.003609  -0.023336
    10  C    0.000000   0.000007   0.000000  -0.000112   0.005410  -0.028657
    11  H    0.369572  -0.022963   0.004179   0.004378  -0.000116   0.000002
    12  H    0.357130  -0.022352   0.002456   0.003277  -0.000071  -0.000009
    13  H    0.368183  -0.022324   0.000387   0.001171  -0.000265  -0.000008
    14  H   -0.000001  -0.002384   0.002974  -0.039489   0.372172  -0.030286
    15  H    0.000655  -0.008257   0.014303  -0.038613   0.363145  -0.023167
    16  H    0.000022   0.002140   0.000234   0.006127   0.001487  -0.008862
    17  H    0.000000  -0.000020   0.000000  -0.000019  -0.000113   0.002607
    18  H    0.000000   0.000006  -0.000004   0.000151  -0.000077  -0.002119
    19  H    0.000000   0.000000   0.000000   0.000014  -0.000153   0.002544
    20  H    0.000000   0.000001   0.000000  -0.000009   0.000987  -0.003222
    21  H    0.000000   0.000000   0.000000  -0.000002  -0.000164  -0.000324
    22  C    0.001154  -0.028824   0.001947   0.225751  -0.040540  -0.000270
    23  H    0.005713  -0.008115   0.000200  -0.032933   0.003183   0.000176
    24  H   -0.000354   0.001839  -0.000075  -0.030411  -0.006877   0.000052
    25  C   -0.001652  -0.001269  -0.000034  -0.049537   0.000268  -0.000503
    26  H   -0.001322   0.001310  -0.000034   0.003931   0.000166  -0.000112
    27  H    0.000081   0.000020   0.000002   0.002606  -0.000645   0.001673
    28  O   -0.000014   0.000034   0.000000   0.001981  -0.000027  -0.000045
    29  C    0.000002  -0.000003   0.000000  -0.000119   0.000002  -0.000002
    30  H    0.000000   0.000000   0.000000   0.000001   0.000000   0.000000
    31  H    0.000000   0.000000   0.000000   0.000006  -0.000001  -0.000001
    32  H   -0.000003   0.000000   0.000000   0.000012   0.000000   0.000000
              7          8          9         10         11         12
     1  C    0.000000   0.000000  -0.000008   0.000000   0.369572   0.357130
     2  C   -0.000197   0.000009  -0.000407   0.000007  -0.022963  -0.022352
     3  O   -0.000002   0.000013  -0.000111   0.000000   0.004179   0.002456
     4  N   -0.001230   0.004183  -0.004623  -0.000112   0.004378   0.003277
     5  C   -0.073457  -0.109283   0.003609   0.005410  -0.000116  -0.000071
     6  C    0.537337   0.267012  -0.023336  -0.028657   0.000002  -0.000009
     7  O    8.116580  -0.094875   0.002803  -0.012616   0.000000   0.000000
     8  N   -0.094875   7.015972   0.286434   0.290889   0.000000  -0.000001
     9  C    0.002803   0.286434   4.814669  -0.050600   0.000000   0.000005
    10  C   -0.012616   0.290889  -0.050600   4.825212   0.000000   0.000000
    11  H    0.000000   0.000000   0.000000   0.000000   0.545280  -0.023885
    12  H    0.000000  -0.000001   0.000005   0.000000  -0.023885   0.587942
    13  H    0.000000   0.000000   0.000000   0.000000  -0.021488  -0.028815
    14  H    0.003372   0.005506  -0.000059  -0.000149  -0.000007  -0.000007
    15  H    0.002975  -0.000905   0.000453  -0.000194  -0.000007  -0.000039
    16  H    0.000037  -0.027606   0.385942   0.003911  -0.000003  -0.000022
    17  H   -0.000052  -0.041200   0.384132  -0.004199   0.000000   0.000000
    18  H   -0.000019  -0.044538   0.383396  -0.000104   0.000000   0.000000
    19  H    0.000643  -0.043168  -0.003231   0.383051   0.000000   0.000000
    20  H    0.024637  -0.036070   0.004420   0.383410   0.000000   0.000000
    21  H    0.000716  -0.045921  -0.000104   0.388740   0.000000   0.000000
    22  C   -0.004819  -0.000824   0.000022   0.000010   0.000375  -0.001688
    23  H    0.000082  -0.000002  -0.000006   0.000000  -0.000029  -0.002350
    24  H    0.013386  -0.000284  -0.000067   0.000001  -0.000011   0.000233
    25  C   -0.000013  -0.002270   0.000371  -0.000007   0.000033  -0.000269
    26  H   -0.000002   0.000122  -0.000019  -0.000001  -0.000049   0.004683
    27  H   -0.000319   0.005157  -0.000320  -0.000055   0.000000  -0.000086
    28  O   -0.000002   0.000024  -0.000001  -0.000001  -0.000001  -0.000056
    29  C    0.000000   0.000006   0.000000  -0.000002   0.000000  -0.000008
    30  H    0.000000   0.000000   0.000000   0.000000   0.000000   0.000000
    31  H    0.000000  -0.000017   0.000000   0.000002   0.000000   0.000000
    32  H    0.000000   0.000000   0.000000   0.000000   0.000000   0.000008
             13         14         15         16         17         18
     1  C    0.368183  -0.000001   0.000655   0.000022   0.000000   0.000000
     2  C   -0.022324  -0.002384  -0.008257   0.002140  -0.000020   0.000006
     3  O    0.000387   0.002974   0.014303   0.000234   0.000000  -0.000004
     4  N    0.001171  -0.039489  -0.038613   0.006127  -0.000019   0.000151
     5  C   -0.000265   0.372172   0.363145   0.001487  -0.000113  -0.000077
     6  C   -0.000008  -0.030286  -0.023167  -0.008862   0.002607  -0.002119
     7  O    0.000000   0.003372   0.002975   0.000037  -0.000052  -0.000019
     8  N    0.000000   0.005506  -0.000905  -0.027606  -0.041200  -0.044538
     9  C    0.000000  -0.000059   0.000453   0.385942   0.384132   0.383396
    10  C    0.000000  -0.000149  -0.000194   0.003911  -0.004199  -0.000104
    11  H   -0.021488  -0.000007  -0.000007  -0.000003   0.000000   0.000000
    12  H   -0.028815  -0.000007  -0.000039  -0.000022   0.000000   0.000000
    13  H    0.562199   0.000063  -0.000017   0.000002   0.000000   0.000000
    14  H    0.000063   0.583577  -0.035536   0.000471  -0.000015   0.000055
    15  H   -0.000017  -0.035536   0.577962  -0.003761   0.000194   0.000238
    16  H    0.000002   0.000471  -0.003761   0.549850  -0.024893  -0.031214
    17  H    0.000000  -0.000015   0.000194  -0.024893   0.607318  -0.044770
    18  H    0.000000   0.000055   0.000238  -0.031214  -0.044770   0.612759
    19  H    0.000000   0.000002  -0.000008   0.000134   0.006911  -0.001237
    20  H    0.000000  -0.000027  -0.000044  -0.000219   0.000029  -0.000132
    21  H    0.000000   0.000009  -0.000003  -0.000081  -0.002284   0.005297
    22  C   -0.002312  -0.003964   0.005523  -0.000824   0.000026  -0.000008
    23  H    0.002414   0.000370  -0.000217   0.000032   0.000000   0.000000
    24  H    0.000156   0.002785   0.000208   0.000075   0.000019  -0.000004
    25  C    0.000004  -0.000152  -0.000087   0.000200   0.000210  -0.000008
    26  H    0.000101   0.000004   0.000006   0.000211  -0.000032   0.000001
    27  H   -0.000006   0.000070  -0.000073  -0.000012  -0.000227   0.000104
    28  O   -0.000007   0.000003   0.000000   0.000003  -0.000001   0.000000
    29  C    0.000000   0.000000   0.000000   0.000000  -0.000002   0.000000
    30  H    0.000000   0.000000   0.000000   0.000000   0.000000   0.000000
    31  H    0.000000   0.000000   0.000000   0.000000   0.000007   0.000000
    32  H    0.000000   0.000000   0.000000   0.000000   0.000000   0.000000
             19         20         21         22         23         24
     1  C    0.000000   0.000000   0.000000   0.001154   0.005713  -0.000354
     2  C    0.000000   0.000001   0.000000  -0.028824  -0.008115   0.001839
     3  O    0.000000   0.000000   0.000000   0.001947   0.000200  -0.000075
     4  N    0.000014  -0.000009  -0.000002   0.225751  -0.032933  -0.030411
     5  C   -0.000153   0.000987  -0.000164  -0.040540   0.003183  -0.006877
     6  C    0.002544  -0.003222  -0.000324  -0.000270   0.000176   0.000052
     7  O    0.000643   0.024637   0.000716  -0.004819   0.000082   0.013386
     8  N   -0.043168  -0.036070  -0.045921  -0.000824  -0.000002  -0.000284
     9  C   -0.003231   0.004420  -0.000104   0.000022  -0.000006  -0.000067
    10  C    0.383051   0.383410   0.388740   0.000010   0.000000   0.000001
    11  H    0.000000   0.000000   0.000000   0.000375  -0.000029  -0.000011
    12  H    0.000000   0.000000   0.000000  -0.001688  -0.002350   0.000233
    13  H    0.000000   0.000000   0.000000  -0.002312   0.002414   0.000156
    14  H    0.000002  -0.000027   0.000009  -0.003964   0.000370   0.002785
    15  H   -0.000008  -0.000044  -0.000003   0.005523  -0.000217   0.000208
    16  H    0.000134  -0.000219  -0.000081  -0.000824   0.000032   0.000075
    17  H    0.006911   0.000029  -0.002284   0.000026   0.000000   0.000019
    18  H   -0.001237  -0.000132   0.005297  -0.000008   0.000000  -0.000004
    19  H    0.612360  -0.024063  -0.044019  -0.000007   0.000000   0.000014
    20  H   -0.024063   0.511962  -0.024884   0.000005   0.000000  -0.000009
    21  H   -0.044019  -0.024884   0.607255   0.000000   0.000000  -0.000003
    22  C   -0.000007   0.000005   0.000000   4.945962   0.376983   0.372848
    23  H    0.000000   0.000000   0.000000   0.376983   0.600737  -0.027423
    24  H    0.000014  -0.000009  -0.000003   0.372848  -0.027423   0.554141
    25  C    0.000102  -0.000001  -0.000001   0.365118  -0.046680  -0.039691
    26  H   -0.000006   0.000000   0.000000  -0.044666  -0.007593   0.006026
    27  H    0.000100  -0.000031   0.000034  -0.036617   0.006614  -0.008456
    28  O   -0.000004   0.000000   0.000000  -0.040392   0.006517   0.004915
    29  C   -0.000004   0.000000   0.000000   0.004654  -0.000087  -0.000091
    30  H    0.000000   0.000000   0.000000  -0.000258   0.000007   0.000008
    31  H    0.000055   0.000000   0.000000   0.000039   0.000062  -0.000055
    32  H    0.000000   0.000000   0.000000  -0.000006  -0.000070   0.000038
             25         26         27         28         29         30
     1  C   -0.001652  -0.001322   0.000081  -0.000014   0.000002   0.000000
     2  C   -0.001269   0.001310   0.000020   0.000034  -0.000003   0.000000
     3  O   -0.000034  -0.000034   0.000002   0.000000   0.000000   0.000000
     4  N   -0.049537   0.003931   0.002606   0.001981  -0.000119   0.000001
     5  C    0.000268   0.000166  -0.000645  -0.000027   0.000002   0.000000
     6  C   -0.000503  -0.000112   0.001673  -0.000045  -0.000002   0.000000
     7  O   -0.000013  -0.000002  -0.000319  -0.000002   0.000000   0.000000
     8  N   -0.002270   0.000122   0.005157   0.000024   0.000006   0.000000
     9  C    0.000371  -0.000019  -0.000320  -0.000001   0.000000   0.000000
    10  C   -0.000007  -0.000001  -0.000055  -0.000001  -0.000002   0.000000
    11  H    0.000033  -0.000049   0.000000  -0.000001   0.000000   0.000000
    12  H   -0.000269   0.004683  -0.000086  -0.000056  -0.000008   0.000000
    13  H    0.000004   0.000101  -0.000006  -0.000007   0.000000   0.000000
    14  H   -0.000152   0.000004   0.000070   0.000003   0.000000   0.000000
    15  H   -0.000087   0.000006  -0.000073   0.000000   0.000000   0.000000
    16  H    0.000200   0.000211  -0.000012   0.000003   0.000000   0.000000
    17  H    0.000210  -0.000032  -0.000227  -0.000001  -0.000002   0.000000
    18  H   -0.000008   0.000001   0.000104   0.000000   0.000000   0.000000
    19  H    0.000102  -0.000006   0.000100  -0.000004  -0.000004   0.000000
    20  H   -0.000001   0.000000  -0.000031   0.000000   0.000000   0.000000
    21  H   -0.000001   0.000000   0.000034   0.000000   0.000000   0.000000
    22  C    0.365118  -0.044666  -0.036617  -0.040392   0.004654  -0.000258
    23  H   -0.046680  -0.007593   0.006614   0.006517  -0.000087   0.000007
    24  H   -0.039691   0.006026  -0.008456   0.004915  -0.000091   0.000008
    25  C    4.777612   0.360080   0.361272   0.229717  -0.034325   0.005300
    26  H    0.360080   0.694835  -0.060194  -0.039544  -0.005955  -0.000114
    27  H    0.361272  -0.060194   0.671778  -0.037005  -0.006406  -0.000085
    28  O    0.229717  -0.039544  -0.037005   8.205706   0.259865  -0.032841
    29  C   -0.034325  -0.005955  -0.006406   0.259865   4.706192   0.395256
    30  H    0.005300  -0.000114  -0.000085  -0.032841   0.395256   0.583324
    31  H   -0.008675  -0.002691   0.013430  -0.037919   0.370085  -0.034616
    32  H   -0.009280   0.013067  -0.002754  -0.037618   0.369530  -0.035119
             31         32
     1  C    0.000000  -0.000003
     2  C    0.000000   0.000000
     3  O    0.000000   0.000000
     4  N    0.000006   0.000012
     5  C   -0.000001   0.000000
     6  C   -0.000001   0.000000
     7  O    0.000000   0.000000
     8  N   -0.000017   0.000000
     9  C    0.000000   0.000000
    10  C    0.000002   0.000000
    11  H    0.000000   0.000000
    12  H    0.000000   0.000008
    13  H    0.000000   0.000000
    14  H    0.000000   0.000000
    15  H    0.000000   0.000000
    16  H    0.000000   0.000000
    17  H    0.000007   0.000000
    18  H    0.000000   0.000000
    19  H    0.000055   0.000000
    20  H    0.000000   0.000000
    21  H    0.000000   0.000000
    22  C    0.000039  -0.000006
    23  H    0.000062  -0.000070
    24  H   -0.000055   0.000038
    25  C   -0.008675  -0.009280
    26  H   -0.002691   0.013067
    27  H    0.013430  -0.002754
    28  O   -0.037919  -0.037618
    29  C    0.370085   0.369530
    30  H   -0.034616  -0.035119
    31  H    0.661138  -0.053044
    32  H   -0.053044   0.664827
 Mulliken atomic charges:
              1
     1  C   -0.403580
     2  C    0.563759
     3  O   -0.507307
     4  N   -0.465739
     5  C   -0.094324
     6  C    0.541230
     7  O   -0.514965
     8  N   -0.428365
     9  C   -0.183363
    10  C   -0.183947
    11  H    0.144740
    12  H    0.123927
    13  H    0.140562
    14  H    0.140645
    15  H    0.145265
    16  H    0.146620
    17  H    0.116374
    18  H    0.122227
    19  H    0.109970
    20  H    0.163262
    21  H    0.115739
    22  C   -0.094399
    23  H    0.122416
    24  H    0.157068
    25  C    0.094168
    26  H    0.077792
    27  H    0.090351
    28  O   -0.483284
    29  C   -0.058584
    30  H    0.119138
    31  H    0.092193
    32  H    0.090413
 Sum of Mulliken atomic charges =   0.00000
 Mulliken charges with hydrogens summed into heavy atoms:
              1
     1  C    0.005648
     2  C    0.563759
     3  O   -0.507307
     4  N   -0.465739
     5  C    0.191586
     6  C    0.541230
     7  O   -0.514965
     8  N   -0.428365
     9  C    0.201858
    10  C    0.205023
    22  C    0.185085
    25  C    0.262311
    28  O   -0.483284
    29  C    0.243159
 Sum of Mulliken charges with hydrogens summed into heavy atoms =   0.00000
 Electronic spatial extent (au):  <R**2>=           3365.6510
 Charge=              0.0000 electrons
 Dipole moment (field-independent basis, Debye):
    X=             -0.6251    Y=              2.7578    Z=              3.4199  Tot=              4.4376
 Quadrupole moment (field-independent basis, Debye-Ang):
   XX=            -79.4759   YY=            -90.8424   ZZ=            -88.1811
   XY=              5.0074   XZ=             -7.9583   YZ=              3.7652
 Traceless Quadrupole moment (field-independent basis, Debye-Ang):
   XX=              6.6905   YY=             -4.6759   ZZ=             -2.0146
   XY=              5.0074   XZ=             -7.9583   YZ=              3.7652
 Octapole moment (field-independent basis, Debye-Ang**2):
  XXX=             -2.4588  YYY=             61.3844  ZZZ=              9.5012  XYY=            -27.2878
  XXY=              5.9991  XXZ=             13.3987  XZZ=             10.6686  YZZ=             -1.8701
  YYZ=              2.3999  XYZ=              9.2785
 Hexadecapole moment (field-independent basis, Debye-Ang**3):
 XXXX=          -1934.5006 YYYY=          -1732.5430 ZZZZ=           -500.6190 XXXY=            -15.5838
 XXXZ=            -24.0098 YYYX=             97.4663 YYYZ=             36.3347 ZZZX=            -24.3237
 ZZZY=            -10.9271 XXYY=           -679.1917 XXZZ=           -435.0992 YYZZ=           -373.0898
 XXYZ=             -4.3752 YYXZ=             -0.2956 ZZXY=             -5.0298
 N-N= 9.829087816327D+02 E-N=-3.571264474160D+03  KE= 6.826242234107D+02
 Calling FoFJK, ICntrl=      2127 FMM=F ISym2X=0 I1Cent= 0 IOpClX= 0 NMat=1 NMatS=1 NMatT=0.
 ***** Axes restored to original set *****
 -------------------------------------------------------------------
 Center     Atomic                   Forces (Hartrees/Bohr)
 Number     Number              X              Y              Z
 -------------------------------------------------------------------
      1        6           0.000007972    0.000004198    0.000002808
      2        6          -0.001198059   -0.000038571   -0.003635485
      3        8          -0.000003259   -0.000009756    0.000004945
      4        7           0.001359739    0.000300194    0.003671168
      5        6           0.000555451   -0.000781635    0.003260082
      6        6          -0.000715053    0.000521919   -0.003274490
      7        8           0.000004480    0.000004872   -0.000014057
      8        7          -0.000004969   -0.000002082   -0.000020949
      9        6          -0.000014361   -0.000002390    0.000009894
     10        6          -0.000000805   -0.000001966    0.000004038
     11        1          -0.000002396    0.000003680   -0.000001796
     12        1          -0.000002779    0.000002925   -0.000002352
     13        1          -0.000000095    0.000000496   -0.000003249
     14        1           0.000000554    0.000004514    0.000004324
     15        1          -0.000008582    0.000001734    0.000003829
     16        1          -0.000001546   -0.000000238   -0.000003906
     17        1           0.000000617   -0.000000215   -0.000000075
     18        1          -0.000001940   -0.000003032    0.000003896
     19        1          -0.000000149   -0.000004825    0.000002385
     20        1           0.000000909   -0.000003172    0.000000702
     21        1          -0.000000322   -0.000003613    0.000001844
     22        6          -0.000003113   -0.000009454    0.000000997
     23        1           0.000003308    0.000003241   -0.000001942
     24        1           0.000006814    0.000000186    0.000000740
     25        6           0.000009789    0.000000532    0.000002080
     26        1          -0.000000673    0.000001799   -0.000001645
     27        1          -0.000003885    0.000003170   -0.000002487
     28        8           0.000000232    0.000001421   -0.000001247
     29        6           0.000001391    0.000003955   -0.000002945
     30        1           0.000006681    0.000000957   -0.000001613
     31        1           0.000000724   -0.000000762   -0.000001145
     32        1           0.000003325    0.000001919   -0.000004348
 -------------------------------------------------------------------
 Cartesian Forces:  Max     0.003671168 RMS     0.000743903

 GradGradGradGradGradGradGradGradGradGradGradGradGradGradGradGradGradGrad
 Berny optimization.
 Internal  Forces:  Max     0.003501963 RMS     0.000468816
 Search for a local minimum.
 Step number   1 out of a maximum of  155 on scan point     1 out of    37
 All quantities printed in internal units (Hartrees-Bohrs-Radians)
 Mixed Optimization -- En-DIIS/RFO-DIIS
 Second derivative matrix not updated -- first step.
 ITU=  0
     Eigenvalues ---    0.00368   0.00479   0.00750   0.00774   0.00938
     Eigenvalues ---    0.00947   0.01038   0.01190   0.01264   0.01529
     Eigenvalues ---    0.01533   0.01869   0.02049   0.02750   0.04121
     Eigenvalues ---    0.05380   0.05481   0.05892   0.06358   0.06855
     Eigenvalues ---    0.07212   0.07468   0.07502   0.07577   0.07662
     Eigenvalues ---    0.09397   0.10010   0.10037   0.10510   0.10937
     Eigenvalues ---    0.11073   0.12872   0.13596   0.16000   0.16000
     Eigenvalues ---    0.16000   0.16000   0.16000   0.16000   0.16000
     Eigenvalues ---    0.16000   0.16000   0.16000   0.16000   0.16000
     Eigenvalues ---    0.21878   0.21928   0.21955   0.22015   0.23267
     Eigenvalues ---    0.24809   0.24894   0.24996   0.25000   0.25000
     Eigenvalues ---    0.25000   0.25000   0.29251   0.29416   0.30206
     Eigenvalues ---    0.33258   0.33511   0.33525   0.33546   0.33828
     Eigenvalues ---    0.33957   0.34077   0.34144   0.34190   0.34193
     Eigenvalues ---    0.34522   0.34524   0.34549   0.34602   0.34832
     Eigenvalues ---    0.34851   0.34985   0.34997   0.35146   0.35597
     Eigenvalues ---    0.37341   0.37435   0.43641   0.43690   0.47909
     Eigenvalues ---    0.50411   0.91487   0.928701000.000001000.00000
     Eigenvalues --- 1000.000001000.000001000.000001000.000001000.00000
     Eigenvalues --- 1000.000001000.000001000.000001000.000001000.00000
     Eigenvalues --- 1000.000001000.000001000.000001000.000001000.00000
     Eigenvalues --- 1000.000001000.000001000.000001000.000001000.00000
     Eigenvalues --- 1000.000001000.000001000.000001000.000001000.00000
     Eigenvalues --- 1000.000001000.000001000.000001000.000001000.00000
     Eigenvalues --- 1000.000001000.000001000.000001000.000001000.00000
     Eigenvalues --- 1000.000001000.000001000.000001000.000001000.00000
     Eigenvalues --- 1000.000001000.000001000.000001000.000001000.00000
     Eigenvalues --- 1000.000001000.000001000.000001000.000001000.00000
     Eigenvalues --- 1000.000001000.000001000.000001000.000001000.00000
 RFO step:  Lambda=-2.30059181D-08 EMin= 3.67978235D-03
 Linear search not attempted -- first point.
 Iteration  1 RMS(Cart)=  0.00039987 RMS(Int)=  0.00000004
 Iteration  2 RMS(Cart)=  0.00000007 RMS(Int)=  0.00000000
 Iteration  1 RMS(Cart)=  0.00000000 RMS(Int)=  0.00000000
 Variable       Old X    -DE/DX   Delta X   Delta X   Delta X     New X
                                 (Linear)    (Quad)   (Total)
    R1        2.87555   0.00001   0.00000   0.00002   0.00002   2.87557
    R2        2.05949   0.00000   0.00000   0.00000   0.00000   2.05948
    R3        2.06458   0.00000   0.00000   0.00000   0.00000   2.06458
    R4        2.07088   0.00000   0.00000   0.00000   0.00000   2.07088
    R5        2.31638  -0.00001   0.00000  -0.00001  -0.00001   2.31636
    R6        2.62036   0.00000   0.00000   0.00000   0.00000   2.62036
    R7        2.78739   0.00000   0.00000  -0.00001  -0.00001   2.78738
    R8        2.78017   0.00000   0.00000   0.00001   0.00001   2.78018
    R9        2.89483   0.00001   0.00000   0.00003   0.00003   2.89486
   R10        2.07005   0.00001   0.00000   0.00002   0.00002   2.07006
   R11        2.05918   0.00000   0.00000   0.00000   0.00000   2.05918
   R12        2.32255  -0.00002   0.00000  -0.00002  -0.00002   2.32253
   R13        2.59453   0.00003   0.00000   0.00005   0.00005   2.59458
   R14        2.75196  -0.00001   0.00000  -0.00001  -0.00001   2.75195
   R15        2.75335   0.00000   0.00000   0.00000   0.00000   2.75335
   R16        2.05700   0.00000   0.00000   0.00000   0.00000   2.05700
   R17        2.07010   0.00000   0.00000   0.00000   0.00000   2.07010
   R18        2.07622   0.00000   0.00000  -0.00001  -0.00001   2.07621
   R19        2.07200   0.00000   0.00000   0.00000   0.00000   2.07200
   R20        2.05680   0.00000   0.00000  -0.00001  -0.00001   2.05680
   R21        2.07402   0.00000   0.00000   0.00000   0.00000   2.07402
   R22        2.06325   0.00000   0.00000   0.00000   0.00000   2.06326
   R23        2.06454   0.00000   0.00000  -0.00001  -0.00001   2.06453
   R24        2.89144  -0.00001   0.00000  -0.00002  -0.00002   2.89142
   R25        2.08601   0.00000   0.00000   0.00000   0.00000   2.08601
   R26        2.08139   0.00001   0.00000   0.00002   0.00002   2.08140
   R27        2.66886   0.00000   0.00000  -0.00001  -0.00001   2.66885
   R28        2.66827   0.00000   0.00000   0.00000   0.00000   2.66827
   R29        2.06413   0.00000   0.00000   0.00000   0.00000   2.06413
   R30        2.08103   0.00000   0.00000   0.00001   0.00001   2.08104
   R31        2.08164   0.00000   0.00000   0.00001   0.00001   2.08164
    A1        1.87175   0.00000   0.00000   0.00001   0.00001   1.87176
    A2        1.98029   0.00000   0.00000  -0.00003  -0.00003   1.98026
    A3        1.92683   0.00000   0.00000   0.00002   0.00002   1.92685
    A4        1.91424   0.00000   0.00000   0.00000   0.00000   1.91424
    A5        1.88672   0.00000   0.00000   0.00001   0.00001   1.88673
    A6        1.88217   0.00000   0.00000  -0.00001  -0.00001   1.88216
    A7        2.10941   0.00000   0.00000   0.00001   0.00001   2.10943
    A8        2.05863   0.00000   0.00000   0.00000   0.00000   2.05863
    A9        2.11497   0.00000   0.00000  -0.00001  -0.00001   2.11496
   A10        1.99851  -0.00027   0.00000   0.00000   0.00000   1.99851
   A11        2.12449   0.00090   0.00000   0.00001   0.00001   2.12450
   A12        2.06081  -0.00017   0.00000   0.00002   0.00002   2.06083
   A13        1.98153   0.00010   0.00000   0.00008   0.00008   1.98162
   A14        1.92219   0.00013   0.00000  -0.00001  -0.00001   1.92218
   A15        1.88077  -0.00011   0.00000   0.00003   0.00003   1.88079
   A16        1.83178   0.00151   0.00000   0.00000   0.00000   1.83178
   A17        1.97183  -0.00154   0.00000  -0.00006  -0.00006   1.97177
   A18        1.87262  -0.00004   0.00000  -0.00004  -0.00004   1.87258
   A19        2.08977   0.00000   0.00000  -0.00001  -0.00001   2.08976
   A20        2.05627   0.00001   0.00000   0.00003   0.00003   2.05630
   A21        2.13713   0.00000   0.00000  -0.00002  -0.00002   2.13711
   A22        2.17648   0.00001   0.00000   0.00005   0.00005   2.17653
   A23        2.07533   0.00000   0.00000  -0.00002  -0.00002   2.07532
   A24        2.02533  -0.00001   0.00000  -0.00004  -0.00004   2.02529
   A25        1.94067   0.00001   0.00000   0.00004   0.00004   1.94072
   A26        1.90475   0.00000   0.00000   0.00001   0.00001   1.90476
   A27        1.95039   0.00000   0.00000  -0.00001  -0.00001   1.95038
   A28        1.87885   0.00000   0.00000  -0.00003  -0.00003   1.87882
   A29        1.90478   0.00000   0.00000  -0.00001  -0.00001   1.90477
   A30        1.88210   0.00000   0.00000   0.00000   0.00000   1.88210
   A31        1.92720   0.00000   0.00000   0.00001   0.00001   1.92721
   A32        1.89091   0.00000   0.00000   0.00000   0.00000   1.89091
   A33        1.93132   0.00000   0.00000  -0.00001  -0.00001   1.93131
   A34        1.91440   0.00000   0.00000  -0.00001  -0.00001   1.91439
   A35        1.89011   0.00000   0.00000   0.00000   0.00000   1.89011
   A36        1.90993   0.00000   0.00000   0.00001   0.00001   1.90994
   A37        1.92877   0.00000   0.00000   0.00000   0.00000   1.92878
   A38        1.89974   0.00000   0.00000   0.00001   0.00001   1.89975
   A39        1.96887  -0.00001   0.00000  -0.00006  -0.00006   1.96882
   A40        1.86495   0.00000   0.00000  -0.00001  -0.00001   1.86494
   A41        1.89352   0.00001   0.00000   0.00005   0.00005   1.89357
   A42        1.90502   0.00000   0.00000   0.00001   0.00001   1.90503
   A43        1.92474   0.00000   0.00000   0.00001   0.00001   1.92475
   A44        1.92408   0.00000   0.00000  -0.00004  -0.00004   1.92405
   A45        1.86937   0.00000   0.00000   0.00002   0.00002   1.86939
   A46        1.87093   0.00000   0.00000  -0.00001  -0.00001   1.87092
   A47        1.93664   0.00000   0.00000   0.00001   0.00001   1.93665
   A48        1.93880   0.00000   0.00000   0.00001   0.00001   1.93881
   A49        1.97338   0.00000   0.00000  -0.00001  -0.00001   1.97336
   A50        1.87254   0.00000   0.00000  -0.00002  -0.00002   1.87252
   A51        1.95082   0.00000   0.00000   0.00001   0.00001   1.95083
   A52        1.95175   0.00000   0.00000   0.00000   0.00000   1.95175
   A53        1.89957   0.00000   0.00000   0.00001   0.00001   1.89957
   A54        1.89957   0.00000   0.00000   0.00000   0.00000   1.89956
   A55        1.88850   0.00000   0.00000   0.00001   0.00001   1.88851
    D1       -0.30118   0.00000   0.00000  -0.00003  -0.00003  -0.30121
    D2        2.82073   0.00000   0.00000   0.00027   0.00027   2.82100
    D3       -2.41774   0.00000   0.00000  -0.00002  -0.00002  -2.41776
    D4        0.70417   0.00000   0.00000   0.00027   0.00027   0.70444
    D5        1.75045   0.00000   0.00000   0.00000   0.00000   1.75044
    D6       -1.41083   0.00000   0.00000   0.00029   0.00029  -1.41054
    D7        2.97298   0.00048   0.00000  -0.00012  -0.00012   2.97285
    D8        0.30506  -0.00049   0.00000  -0.00019  -0.00019   0.30487
    D9       -0.18837   0.00049   0.00000   0.00017   0.00017  -0.18819
   D10       -2.85628  -0.00048   0.00000   0.00011   0.00011  -2.85618
   D11        2.94384  -0.00350   0.00000   0.00000   0.00000   2.94384
   D12       -1.29121  -0.00144   0.00000   0.00005   0.00005  -1.29116
   D13        0.74621  -0.00148   0.00000   0.00000   0.00000   0.74622
   D14       -0.65307  -0.00226   0.00000   0.00006   0.00006  -0.65301
   D15        1.39506  -0.00019   0.00000   0.00011   0.00011   1.39517
   D16       -2.85070  -0.00023   0.00000   0.00006   0.00006  -2.85064
   D17        0.32509   0.00049   0.00000  -0.00035  -0.00035   0.32473
   D18        2.36801   0.00049   0.00000  -0.00036  -0.00036   2.36766
   D19       -1.79802   0.00049   0.00000  -0.00037  -0.00037  -1.79840
   D20       -2.32673  -0.00050   0.00000  -0.00042  -0.00042  -2.32715
   D21       -0.28381  -0.00050   0.00000  -0.00042  -0.00042  -0.28423
   D22        1.83334  -0.00050   0.00000  -0.00044  -0.00044   1.83290
   D23        1.73256   0.00084   0.00000   0.00009   0.00009   1.73265
   D24       -1.41497   0.00084   0.00000   0.00000   0.00000  -1.41497
   D25       -0.36751  -0.00038   0.00000   0.00006   0.00006  -0.36745
   D26        2.76815  -0.00038   0.00000  -0.00003  -0.00003   2.76811
   D27       -2.40220  -0.00046   0.00000   0.00014   0.00014  -2.40206
   D28        0.73345  -0.00046   0.00000   0.00005   0.00005   0.73350
   D29       -0.03249   0.00000   0.00000  -0.00007  -0.00007  -0.03256
   D30       -3.05129   0.00000   0.00000   0.00002   0.00002  -3.05127
   D31        3.10299   0.00000   0.00000  -0.00016  -0.00016   3.10283
   D32        0.08419   0.00000   0.00000  -0.00007  -0.00007   0.08412
   D33        0.39920   0.00000   0.00000   0.00005   0.00005   0.39924
   D34        2.46920   0.00000   0.00000   0.00004   0.00004   2.46925
   D35       -1.73399   0.00000   0.00000   0.00004   0.00004  -1.73395
   D36       -2.86202   0.00000   0.00000  -0.00004  -0.00004  -2.86206
   D37       -0.79201   0.00000   0.00000  -0.00005  -0.00005  -0.79206
   D38        1.28798   0.00000   0.00000  -0.00005  -0.00005   1.28793
   D39       -2.19592   0.00000   0.00000   0.00006   0.00006  -2.19586
   D40       -0.09906   0.00000   0.00000   0.00006   0.00006  -0.09900
   D41        1.99480   0.00000   0.00000   0.00006   0.00006   1.99486
   D42        1.05798   0.00000   0.00000   0.00013   0.00013   1.05812
   D43       -3.12834   0.00000   0.00000   0.00013   0.00013  -3.12821
   D44       -1.03449   0.00000   0.00000   0.00014   0.00014  -1.03435
   D45        0.95728   0.00000   0.00000   0.00014   0.00014   0.95741
   D46       -1.10529   0.00000   0.00000   0.00017   0.00017  -1.10512
   D47        3.06646   0.00000   0.00000   0.00017   0.00017   3.06664
   D48       -1.18565   0.00000   0.00000   0.00014   0.00014  -1.18551
   D49        3.03497   0.00000   0.00000   0.00017   0.00017   3.03514
   D50        0.92354   0.00000   0.00000   0.00017   0.00017   0.92371
   D51        3.07142   0.00000   0.00000   0.00012   0.00012   3.07154
   D52        1.00885   0.00000   0.00000   0.00015   0.00015   1.00900
   D53       -1.10258   0.00000   0.00000   0.00015   0.00015  -1.10242
   D54        3.09946   0.00000   0.00000  -0.00009  -0.00009   3.09938
   D55       -1.08210   0.00000   0.00000  -0.00005  -0.00005  -1.08215
   D56        0.99738   0.00000   0.00000  -0.00006  -0.00006   0.99732
   D57       -3.13971   0.00000   0.00000  -0.00013  -0.00013  -3.13985
   D58       -1.05859   0.00000   0.00000  -0.00013  -0.00013  -1.05873
   D59        1.06181   0.00000   0.00000  -0.00012  -0.00012   1.06169
         Item               Value     Threshold  Converged?
 Maximum Force            0.000026     0.000450     YES
 RMS     Force            0.000004     0.000300     YES
 Maximum Displacement     0.001912     0.001800     NO 
 RMS     Displacement     0.000400     0.001200     YES
 Predicted change in Energy=-1.150424D-08
 GradGradGradGradGradGradGradGradGradGradGradGradGradGradGradGradGradGrad

                          Input orientation:                          
 ---------------------------------------------------------------------
 Center     Atomic      Atomic             Coordinates (Angstroms)
 Number     Number       Type             X           Y           Z
 ---------------------------------------------------------------------
      1          6           0        3.312036    0.910666   -0.342467
      2          6           0        1.975884    1.613655   -0.152660
      3          8           0        1.867679    2.819968   -0.341355
      4          7           0        0.883184    0.843945    0.216536
      5          6           0       -0.311849    1.620551    0.596608
      6          6           0       -1.577386    0.768239    0.733257
      7          8           0       -1.952402    0.408001    1.846859
      8          7           0       -2.257017    0.441830   -0.414206
      9          6           0       -1.883722    0.879707   -1.751976
     10          6           0       -3.523651   -0.269815   -0.304283
     11          1           0        3.945311    1.573979   -0.931290
     12          1           0        3.227256   -0.056905   -0.842702
     13          1           0        3.798275    0.746546    0.625804
     14          1           0       -0.168631    2.074127    1.583383
     15          1           0       -0.421957    2.433479   -0.120611
     16          1           0       -0.828409    1.142154   -1.799997
     17          1           0       -2.054691    0.060403   -2.458744
     18          1           0       -2.483894    1.739021   -2.081341
     19          1           0       -3.501969   -1.184904   -0.907904
     20          1           0       -3.683877   -0.524284    0.741762
     21          1           0       -4.351945    0.357061   -0.658564
     22          6           0        1.042739   -0.503729    0.784659
     23          1           0        2.058424   -0.642721    1.160369
     24          1           0        0.371497   -0.607770    1.640331
     25          6           0        0.743143   -1.612693   -0.226070
     26          1           0        1.361879   -1.482998   -1.130982
     27          1           0       -0.310743   -1.565180   -0.542643
     28          8           0        1.028007   -2.841609    0.408907
     29          6           0        0.741425   -3.962211   -0.400925
     30          1           0        0.992634   -4.853786    0.177944
     31          1           0       -0.323967   -4.005517   -0.676230
     32          1           0        1.336585   -3.960610   -1.327862
 ---------------------------------------------------------------------
                    Distance matrix (angstroms):
                    1          2          3          4          5
     1  C    0.000000
     2  C    1.521684   0.000000
     3  O    2.394077   1.225767   0.000000
     4  N    2.493242   1.386633   2.277090   0.000000
     5  C    3.810295   2.407317   2.658706   1.475018   0.000000
     6  C    5.008385   3.758365   4.151248   2.515381   1.531892
     7  O    5.723647   4.569805   5.019849   3.299781   2.392659
     8  N    5.589213   4.399890   4.761718   3.228063   2.488936
     9  C    5.383640   4.241822   4.452806   3.395893   2.921555
    10  C    6.936974   5.815096   6.214062   4.575141   3.834157
    11  H    1.089832   2.118132   2.493405   3.350683   4.523280
    12  H    1.092527   2.198377   3.221211   2.725470   4.172618
    13  H    1.095862   2.163098   2.993606   2.945291   4.202126
    14  H    4.144585   2.797289   2.899562   2.118475   1.095431
    15  H    4.038674   2.534321   2.332495   2.084150   1.089670
    16  H    4.395597   3.286350   3.494508   2.661745   2.497882
    17  H    5.831238   4.896544   5.242472   4.049959   3.847951
    18  H    6.107591   4.860571   4.809593   4.173562   3.450105
    19  H    7.151349   6.197516   6.722581   4.960863   4.506772
    20  H    7.223395   6.115854   6.570916   4.796453   3.998994
    21  H    7.690449   6.471197   6.697033   5.330050   4.415227
    22  C    2.901833   2.496526   3.604913   1.471206   2.526428
    23  H    2.498614   2.611913   3.779124   2.117117   3.325420
    24  H    3.857967   3.274692   4.232615   2.096782   2.553769
[...]
   D21        0.03344  -0.00142  -0.02046  -0.02527  -0.04570  -0.01226
   D22        2.16712  -0.00300  -0.02357  -0.01933  -0.04287   2.12425
   D23        2.62063  -0.00028  -0.00767   0.01855   0.01083   2.63146
   D24       -0.36777  -0.00522   0.00000   0.00000   0.00000  -0.36778
   D25        0.42225   0.00216  -0.02238   0.03088   0.00853   0.43078
   D26       -2.56615  -0.00278  -0.01471   0.01232  -0.00231  -2.56846
   D27       -1.53370   0.00080  -0.02911   0.04113   0.01223  -1.52147
   D28        1.76109  -0.00414  -0.02144   0.02258   0.00139   1.76248
   D29       -0.84898   0.00532   0.03892   0.03474   0.07368  -0.77530
   D30        3.00378   0.00369   0.01077  -0.00701   0.00356   3.00734
   D31        2.45289   0.00028   0.04607   0.01617   0.06244   2.51533
   D32        0.02246  -0.00135   0.01792  -0.02558  -0.00768   0.01479
   D33        0.70219  -0.00010  -0.01844  -0.08164  -0.10011   0.60209
   D34        2.79662  -0.00104  -0.02231  -0.07856  -0.10090   2.69571
   D35       -1.40918  -0.00040  -0.02060  -0.07849  -0.09912  -1.50830
   D36       -3.13714   0.00083   0.00852  -0.03928  -0.03073   3.11531
   D37       -1.04272  -0.00011   0.00465  -0.03620  -0.03153  -1.07425
   D38        1.03467   0.00052   0.00637  -0.03614  -0.02974   1.00493
   D39       -2.83516   0.00040   0.01555   0.03728   0.05283  -2.78233
   D40       -0.73921   0.00017   0.01516   0.03625   0.05141  -0.68780
   D41        1.35062   0.00035   0.01543   0.03809   0.05352   1.40414
   D42        0.97927  -0.00035  -0.01325  -0.00496  -0.01821   0.96106
   D43        3.07522  -0.00059  -0.01365  -0.00598  -0.01963   3.05560
   D44       -1.11813  -0.00040  -0.01338  -0.00415  -0.01752  -1.13565
   D45        0.79940   0.00061   0.00895   0.03329   0.04225   0.84164
   D46       -1.28289   0.00113   0.01069   0.02837   0.03907  -1.24382
   D47        2.90452   0.00079   0.00954   0.02974   0.03929   2.94380
   D48       -1.35526  -0.00004   0.00778   0.03450   0.04226  -1.31299
   D49        2.84564   0.00048   0.00952   0.02957   0.03909   2.88473
   D50        0.74986   0.00013   0.00837   0.03095   0.03931   0.78917
   D51        2.93194  -0.00082   0.00570   0.04069   0.04639   2.97833
   D52        0.84965  -0.00030   0.00745   0.03577   0.04322   0.89287
   D53       -1.24613  -0.00064   0.00630   0.03714   0.04343  -1.20269
   D54        3.07719  -0.00024  -0.00040   0.00434   0.00394   3.08113
   D55       -1.10172   0.00006  -0.00020   0.00236   0.00217  -1.09955
   D56        0.97869   0.00010   0.00044   0.00058   0.00102   0.97971
   D57        3.13968  -0.00003   0.00225   0.01665   0.01890  -3.12461
   D58       -1.06195  -0.00001   0.00238   0.01618   0.01855  -1.04340
   D59        1.05822   0.00006   0.00240   0.01636   0.01876   1.07697
         Item               Value     Threshold  Converged?
 Maximum Force            0.010389     0.000450     NO 
 RMS     Force            0.001677     0.000300     NO 
 Maximum Displacement     0.330321     0.001800     NO 
 RMS     Displacement     0.074749     0.001200     NO 
 Predicted change in Energy=-1.290390D-04
 GradGradGradGradGradGradGradGradGradGradGradGradGradGradGradGradGradGrad

                          Input orientation:                          
 ---------------------------------------------------------------------
 Center     Atomic      Atomic             Coordinates (Angstroms)
 Number     Number       Type             X           Y           Z
 ---------------------------------------------------------------------
      1          6           0        3.259659    0.814356   -0.283980
      2          6           0        1.990207    1.613235   -0.032010
      3          8           0        2.029097    2.833803    0.024013
      4          7           0        0.778466    0.914760    0.087156
      5          6           0       -0.293286    1.740892    0.676850
      6          6           0       -1.750030    1.261787    0.657371
      7          8           0       -2.469752    1.645811    1.571862
      8          7           0       -2.180140    0.306254   -0.248563
      9          6           0       -1.774821    0.393356   -1.654675
     10          6           0       -3.540212   -0.193273   -0.055129
     11          1           0        3.973244    1.486373   -0.760758
     12          1           0        3.108711   -0.068103   -0.908210
     13          1           0        3.694074    0.483905    0.666228
     14          1           0       -0.093542    1.960694    1.731045
     15          1           0       -0.249950    2.706445    0.163902
     16          1           0       -0.766220    0.795213   -1.737231
     17          1           0       -1.792980   -0.599786   -2.113435
     18          1           0       -2.463520    1.037157   -2.221034
     19          1           0       -3.632490   -1.158977   -0.560360
     20          1           0       -3.733083   -0.310873    1.009980
     21          1           0       -4.294221    0.492655   -0.465075
     22          6           0        0.856495   -0.478740    0.599774
     23          1           0        1.808526   -0.643981    1.111190
     24          1           0        0.078119   -0.616190    1.352954
     25          6           0        0.720186   -1.584218   -0.447950
     26          1           0        1.377051   -1.389260   -1.312471
     27          1           0       -0.308891   -1.646480   -0.821382
     28          8           0        1.085000   -2.787959    0.199759
     29          6           0        0.935473   -3.925948   -0.623251
     30          1           0        1.223675   -4.796091   -0.029221
     31          1           0       -0.105430   -4.053793   -0.959165
     32          1           0        1.580434   -3.874421   -1.514580
 ---------------------------------------------------------------------
                    Distance matrix (angstroms):
                    1          2          3          4          5
     1  C    0.000000
     2  C    1.520923   0.000000
     3  O    2.384808   1.222471   0.000000
     4  N    2.510805   1.403703   2.291460   0.000000
     5  C    3.795403   2.394394   2.648417   1.476106   0.000000
     6  C    5.116964   3.819442   4.141760   2.615123   1.533631
     7  O    6.079607   4.739694   4.903754   3.645505   2.355226
     8  N    5.463592   4.375715   4.917365   3.039134   2.544562
     9  C    5.234696   4.277450   4.821158   3.134504   3.073566
    10  C    6.877931   5.818036   6.339294   4.460826   3.849586
    11  H    1.090013   2.116508   2.492217   3.354446   4.509411
    12  H    1.091413   2.201290   3.233522   2.717869   4.166349
    13  H    1.095814   2.160113   2.950697   3.003620   4.180811
    14  H    4.076564   2.751563   2.860397   2.134653   1.095233
    15  H    4.012226   2.500358   2.286885   2.067284   1.094206
    16  H    4.280188   3.342877   3.882220   2.393478   2.635482
    17  H    5.556606   4.852040   5.564754   3.707936   3.938724
    18  H    6.046206   4.995936   5.334021   3.981607   3.688210
    19  H    7.174409   6.291186   6.952506   4.916929   4.592408
    20  H    7.199924   6.127314   6.638059   4.765276   4.019069
    21  H    7.562895   6.398224   6.760512   5.120086   4.343911
    22  C    2.868505   2.461872   3.560819   1.486845   2.500941
    23  H    2.485766   2.536719   3.650422   2.130573   3.208409
    24  H    3.853338   3.247237   4.180293   2.106310   2.480100
    25  C    3.496995   3.465497   4.631944   2.556292   3.653582
    26  H    3.075375   3.321222   4.477233   2.761479   4.067589
    27  H    4.367959   4.066288   5.123848   2.927070   3.703949
    28  O    4.235543   4.499292   5.703193   3.717092   4.757918
    29  C    5.290315   5.669620   6.878168   4.895078   5.942491
    30  H    5.973881   6.455001   7.672471   5.729361   6.747730
    31  H    5.956390   6.112816   7.277487   5.153890   6.024136
    32  H    5.130186   5.699149   6.897016   5.113215   6.312285
                    6          7          8          9         10
     6  C    0.000000
     7  O    1.225466   0.000000
     8  N    1.385191   2.278648   0.000000
     9  C    2.469887   3.530172   1.465954   0.000000
    10  C    2.414458   2.678659   1.461759   2.453423   0.000000
    11  H    5.900627   6.854104   6.286427   5.918955   7.731180
    12  H    5.275132   6.340939   5.342960   4.961757   6.704595
    13  H    5.499405   6.337425   5.947671   5.941684   7.301632
    14  H    2.094087   2.402262   3.318118   4.092230   4.439541
    15  H    2.140278   2.834575   3.107520   3.314036   4.391146
    16  H    2.630531   3.817805   2.110541   1.088843   3.391401
    17  H    3.338363   4.368311   2.109158   1.094130   2.730329
    18  H    2.974011   3.841426   2.122537   1.099795   2.713737
    19  H    3.299487   3.710143   2.086489   2.656726   1.093781
    20  H    2.555404   2.395898   2.091987   3.380993   1.088801
    21  H    2.885195   2.967754   2.133298   2.787899   1.098673
    22  C    3.134760   4.064799   3.249160   3.573082   4.454371
    23  H    4.062170   4.874323   4.319876   4.643969   5.492944
    24  H    2.711598   3.414121   2.918132   3.674017   3.905622
    25  C    3.927269   4.968745   3.467784   3.404708   4.498891
    26  H    4.548293   5.685854   4.081700   3.637186   5.214477
    27  H    3.566736   4.608267   2.764573   2.646556   3.624968
    28  O    4.964599   5.846131   4.520651   4.662431   5.309421
    29  C    5.980344   6.889019   5.268678   5.202491   5.855543
    30  H    6.783230   7.596247   6.137425   6.209946   6.624290
    31  H    5.794246   6.669454   4.880511   4.800805   5.245820
    32  H    6.495382   7.510199   5.763918   5.430587   6.473164
                   11         12         13         14         15
    11  H    0.000000
    12  H    1.784813   0.000000
    13  H    1.766117   1.768111   0.000000
    14  H    4.792996   4.619102   4.202473   0.000000
    15  H    4.492098   4.486440   4.554925   1.742568   0.000000
    16  H    4.888121   4.055574   5.076195   3.720185   2.744750
    17  H    6.279421   5.075611   6.245693   4.921806   4.300973
    18  H    6.615598   5.830512   6.823367   4.699855   3.657094
    19  H    8.055136   6.837747   7.608030   5.244714   5.187255
    20  H    8.108827   7.109749   7.477466   4.350426   4.685325
    21  H    8.332219   7.437352   8.068010   4.962235   4.653236
    22  C    3.927702   2.741371   2.997159   2.851873   3.399942
    23  H    3.567717   2.469836   2.241743   3.284267   4.044754
    24  H    4.905156   3.820700   3.841476   2.610125   3.544204
    25  C    4.484280   2.866268   3.789794   4.239878   4.441319
    26  H    3.913294   2.215294   3.576673   4.758973   4.647753
    27  H    5.306140   3.765476   4.772342   4.424134   4.463431
    28  O    5.247329   3.566597   4.210695   5.126744   5.654366
    29  C    6.208074   4.437018   5.359052   6.422938   6.783324
    30  H    6.896711   5.165253   5.870679   7.105472   7.648327
    31  H    6.882470   5.120451   6.137495   6.588735   6.854414
    32  H    5.918775   4.146248   5.312100   6.883665   7.033876
                   16         17         18         19         20
    16  H    0.000000
    17  H    1.772509   0.000000
    18  H    1.781412   1.772227   0.000000
    19  H    3.663248   2.471545   2.991209   0.000000
    20  H    4.192001   3.688251   3.724034   1.787559   0.000000
    21  H    3.762540   3.188530   2.594482   1.781812   1.770966
    22  C    3.117331   3.794189   4.612744   4.686109   4.610929
    23  H    4.100500   4.834357   5.672770   5.715238   5.552533
    24  H    3.500602   3.939180   4.686884   4.209989   3.838764
    25  C    3.087611   3.171584   4.489033   4.374843   4.855776
    26  H    3.089653   3.363616   4.632815   5.070918   5.715782
    27  H    2.647602   2.228786   3.715288   3.369288   4.106437
    28  O    4.474156   4.292055   5.751848   5.048374   5.477804
    29  C    5.140630   4.552852   6.224025   5.341008   6.126306
    30  H    6.175731   5.572533   7.240596   6.090406   6.765099
    31  H    4.955289   4.013767   5.750711   4.580301   5.571970
    32  H    5.230855   4.739386   6.401269   5.954724   6.877916
                   21         22         23         24         25
    21  H    0.000000
    22  C    5.348587   0.000000
    23  H    6.404691   1.093258   0.000000
    24  H    4.863345   1.091807   1.747435   0.000000
    25  C    5.427519   1.529179   2.121190   2.143031   0.000000
    26  H    6.035148   2.180988   2.572109   3.064206   1.103122
    27  H    4.537148   2.177482   3.036987   2.437009   1.096506
    28  O    6.335649   2.354723   2.439434   2.657113   1.414783
    29  C    6.848268   3.658589   3.813373   3.949043   2.358131
    30  H    7.655584   4.378353   4.345412   4.549096   3.277951
    31  H    6.201636   4.017039   4.424525   4.146891   2.653636
    32  H    7.394889   4.065124   4.169225   4.593013   2.668850
                   26         27         28         29         30
    26  H    0.000000
    27  H    1.774748   0.000000
    28  O    2.080503   2.070902   0.000000
    29  C    2.665484   2.604548   1.412347   0.000000
    30  H    3.643728   3.591145   2.025896   1.092282   0.000000
    31  H    3.069579   2.419822   2.088676   1.101209   1.783906
    32  H    2.501647   3.002298   2.089213   1.101407   1.784108
                   31         32
    31  H    0.000000
    32  H    1.784039   0.000000
 Stoichiometry    C9H18N2O3
 Framework group  C1[X(C9H18N2O3)]
 Deg. of freedom    90
 Full point group                 C1      NOp   1
 Largest Abelian subgroup         C1      NOp   1
 Largest concise Abelian subgroup C1      NOp   1
                         Standard orientation:                         
 ---------------------------------------------------------------------
 Center     Atomic      Atomic             Coordinates (Angstroms)
 Number     Number       Type             X           Y           Z
 ---------------------------------------------------------------------
      1          6           0        2.666547   -2.050687    0.282772
      2          6           0        1.159279   -2.237141    0.201623
      3          8           0        0.665577   -3.346895    0.339974
      4          7           0        0.358634   -1.100092    0.010656
      5          6           0       -1.015838   -1.441351   -0.405585
      6          6           0       -2.116975   -0.373929   -0.417028
      7          8           0       -3.017600   -0.518602   -1.235388
      8          7           0       -2.004973    0.782104    0.337822
      9          6           0       -1.540492    0.709555    1.726351
     10          6           0       -3.031392    1.797635    0.110002
     11          1           0        3.066147   -2.899294    0.838031
     12          1           0        2.970360   -1.118653    0.762555
     13          1           0        3.105255   -2.070764   -0.721191
     14          1           0       -1.033933   -1.861351   -1.416925
     15          1           0       -1.340498   -2.252366    0.253306
     16          1           0       -0.798754   -0.079391    1.840234
     17          1           0       -1.086186    1.660289    2.021024
     18          1           0       -2.379502    0.512628    2.409602
     19          1           0       -2.650863    2.762509    0.457237
     20          1           0       -3.258576    1.848436   -0.953621
     21          1           0       -3.962441    1.571568    0.647703
     22          6           0        0.975753    0.038306   -0.720044
     23          1           0        1.851546   -0.298682   -1.280970
     24          1           0        0.261760    0.404045   -1.460646
     25          6           0        1.429795    1.217258    0.141527
     26          1           0        2.020914    0.868129    1.004989
     27          1           0        0.568792    1.772423    0.532413
     28          8           0        2.209927    2.043594   -0.701191
     29          6           0        2.644015    3.228063   -0.066114
     30          1           0        3.217613    3.798308   -0.800202
     31          1           0        1.796823    3.841862    0.277657
     32          1           0        3.288542    3.015187    0.801276
 ---------------------------------------------------------------------
 Rotational constants (GHZ):      0.6391787      0.5442662      0.3365054
 Standard basis: 6-31G(d,p) (6D, 7F)
 There are   300 symmetry adapted basis functions of A   symmetry.
 Integral buffers will be    131072 words long.
 Raffenetti 2 integral format.
 Two-electron integral symmetry is turned on.
   300 basis functions,   518 primitive gaussians,   300 cartesian basis functions
    55 alpha electrons       55 beta electrons
       nuclear repulsion energy       979.5285949561 Hartrees.
 NAtoms=   32 NActive=   32 NUniq=   32 SFac= 1.00D+00 NAtFMM=   60 NAOKFM=F Big=F
 One-electron integrals computed using PRISM.
 NBasis=   300 RedAO= T  NBF=   300
 NBsUse=   300 1.00D-06 NBFU=   300
 Initial guess read from the read-write file.
 B after Tr=     0.000000    0.000000    0.000000
         Rot=    1.000000    0.000000    0.000000    0.000000 Ang=   0.00 deg.
 Initial guess orbital symmetries:
       Occupied  (A) (A) (A) (A) (A) (A) (A) (A) (A) (A) (A) (A)
                 (A) (A) (A) (A) (A) (A) (A) (A) (A) (A) (A) (A)
                 (A) (A) (A) (A) (A) (A) (A) (A) (A) (A) (A) (A)
                 (A) (A) (A) (A) (A) (A) (A) (A) (A) (A) (A) (A)
                 (A) (A) (A) (A) (A) (A) (A)
       Virtual   (A) (A) (A) (A) (A) (A) (A) (A) (A) (A) (A) (A)
                 (A) (A) (A) (A) (A) (A) (A) (A) (A) (A) (A) (A)
                 (A) (A) (A) (A) (A) (A) (A) (A) (A) (A) (A) (A)
                 (A) (A) (A) (A) (A) (A) (A) (A) (A) (A) (A) (A)
                 (A) (A) (A) (A) (A) (A) (A) (A) (A) (A) (A) (A)
                 (A) (A) (A) (A) (A) (A) (A) (A) (A) (A) (A) (A)
                 (A) (A) (A) (A) (A) (A) (A) (A) (A) (A) (A) (A)
                 (A) (A) (A) (A) (A) (A) (A) (A) (A) (A) (A) (A)
                 (A) (A) (A) (A) (A) (A) (A) (A) (A) (A) (A) (A)
                 (A) (A) (A) (A) (A) (A) (A) (A) (A) (A) (A) (A)
                 (A) (A) (A) (A) (A) (A) (A) (A) (A) (A) (A) (A)
                 (A) (A) (A) (A) (A) (A) (A) (A) (A) (A) (A) (A)
                 (A) (A) (A) (A) (A) (A) (A) (A) (A) (A) (A) (A)
                 (A) (A) (A) (A) (A) (A) (A) (A) (A) (A) (A) (A)
                 (A) (A) (A) (A) (A) (A) (A) (A) (A) (A) (A) (A)
                 (A) (A) (A) (A) (A) (A) (A) (A) (A) (A) (A) (A)
                 (A) (A) (A) (A) (A) (A) (A) (A) (A) (A) (A) (A)
                 (A) (A) (A) (A) (A) (A) (A) (A) (A) (A) (A) (A)
                 (A) (A) (A) (A) (A) (A) (A) (A) (A) (A) (A) (A)
                 (A) (A) (A) (A) (A) (A) (A) (A) (A) (A) (A) (A)
                 (A) (A) (A) (A) (A)
 Harris functional with IExCor=  402 diagonalized for initial guess.
 ExpMin= 1.61D-01 ExpMax= 5.48D+03 ExpMxC= 8.25D+02 IAcc=1 IRadAn=         1 AccDes= 0.00D+00
 HarFok:  IExCor=  402 AccDes= 0.00D+00 IRadAn=         1 IDoV= 1
 ScaDFX=  1.000000  1.000000  1.000000  1.000000
 FoFCou: FMM=F IPFlag=           0 FMFlag=      100000 FMFlg1=           0
         NFxFlg=           0 DoJE=T BraDBF=F KetDBF=T FulRan=T
         Omega=  0.000000  0.000000  1.000000  0.000000  0.000000 ICntrl=     500 IOpCl=  0
         NMat0=    1 NMatS0=    1 NMatT0=    0 NMatD0=    1 NMtDS0=    0 NMtDT0=    0
         I1Cent=           4 NGrid=           0.
 Petite list used in FoFCou.
 Requested convergence on RMS density matrix=1.00D-08 within 128 cycles.
 Requested convergence on MAX density matrix=1.00D-06.
 Requested convergence on             energy=1.00D-06.
 No special actions if energy rises.
 Keep R1 ints in memory in canonical form, NReq=1033483281.
 Integral accuracy reduced to 1.0D-05 until final iterations.
