 Entering Gaussian System, Link 0=/data/opt/apps/g09-C01/g09
 Initial command:
 /data/opt/apps/g09-C01/l1.exe /tmp/g09-tuu61186-1150916c21e64fea8x/Gau-1151057.inp -scrdir=/tmp/g09-tuu61186-1150916c21e64fea8x/
 Entering Link 1 = /data/opt/apps/g09-C01/l1.exe PID=   1151064.
  
 Copyright (c) 1988,1990,1992,1993,1995,1998,2003,2009,2011,
            Gaussian, Inc.  All Rights Reserved.
  
 This is part of the Gaussian(R) 09 program.  It is based on
 the Gaussian(R) 03 system (copyright 2003, Gaussian, Inc.),
 the Gaussian(R) 98 system (copyright 1998, Gaussian, Inc.),
 the Gaussian(R) 94 system (copyright 1995, Gaussian, Inc.),
 the Gaussian 92(TM) system (copyright 1992, Gaussian, Inc.),
 the Gaussian 90(TM) system (copyright 1990, Gaussian, Inc.),
 the Gaussian 88(TM) system (copyright 1988, Gaussian, Inc.),
 the Gaussian 86(TM) system (copyright 1986, Carnegie Mellon
 University), and the Gaussian 82(TM) system (copyright 1983,
 Carnegie Mellon University). Gaussian is a federally registered
 trademark of Gaussian, Inc.
  
 This software contains proprietary and confidential information,
 including trade secrets, belonging to Gaussian, Inc.
  
 This software is provided under written license and may be
 used, copied, transmitted, or stored only in accord with that
 written license.
  
 The following legend is applicable only to US Government
 contracts under FAR:
  
                    RESTRICTED RIGHTS LEGEND
  
 Use, reproduction and disclosure by the US Government is
 subject to restrictions as set forth in subparagraphs (a)
 and (c) of the Commercial Computer Software - Restricted
 Rights clause in FAR 52.227-19.
  
 Gaussian, Inc.
 340 Quinnipiac St., Bldg. 40, Wallingford CT 06492
  
  
 ---------------------------------------------------------------
 Warning -- This program may not be used in any manner that
 competes with the business of Gaussian, Inc. or will provide
 assistance to any competitor of Gaussian, Inc.  The licensee
 of this program is prohibited from giving any competitor of
 Gaussian, Inc. access to this program.  By using this program,
 the user acknowledges that Gaussian, Inc. is engaged in the
 business of creating and licensing software in the field of
 computational chemistry and represents and warrants to the
 licensee that it is not a competitor of Gaussian, Inc. and that
 it will not use this program in any manner prohibited above.
 ---------------------------------------------------------------
  

 Cite this work as:
 Gaussian 09, Revision C.01,
 M. J. Frisch, G. W. Trucks, H. B. Schlegel, G. E. Scuseria, 
 M. A. Robb, J. R. Cheeseman, G. Scalmani, V. Barone, B. Mennucci, 
 G. A. Petersson, H. Nakatsuji, M. Caricato, X. Li, H. P. Hratchian, 
 A. F. Izmaylov, J. Bloino, G. Zheng, J. L. Sonnenberg, M. Hada, 
 M. Ehara, K. Toyota, R. Fukuda, J. Hasegawa, M. Ishida, T. Nakajima, 
 Y. Honda, O. Kitao, H. Nakai, T. Vreven, J. A. Montgomery, Jr., 
 J. E. Peralta, F. Ogliaro, M. Bearpark, J. J. Heyd, E. Brothers, 
 K. N. Kudin, V. N. Staroverov, T. Keith, R. Kobayashi, J. Normand, 
 K. Raghavachari, A. Rendell, J. C. Burant, S. S. Iyengar, J. Tomasi, 
 M. Cossi, N. Rega, J. M. Millam, M. Klene, J. E. Knox, J. B. Cross, 
 V. Bakken, C. Adamo, J. Jaramillo, R. Gomperts, R. E. Stratmann, 
 O. Yazyev, A. J. Austin, R. Cammi, C. Pomelli, J. W. Ochterski, 
 R. L. Martin, K. Morokuma, V. G. Zakrzewski, G. A. Voth, 
 P. Salvador, J. J. Dannenberg, S. Dapprich, A. D. Daniels, 
 O. Farkas, J. B. Foresman, J. V. Ortiz, J. Cioslowski, 
 and D. J. Fox, Gaussian, Inc., Wallingford CT, 2010.
 
 ******************************************
 Gaussian 09:  EM64L-G09RevC.01 23-Sep-2011
                24-Apr-2026 
 ******************************************
 %nprocshared=8
 Will use up to    8 processors via shared memory.
 %mem=14GB
 -----------------------------------
 # opt=modredundant b3lyp/6-31g(d,p)
 -----------------------------------
 1/14=-1,18=120,19=15,26=3,38=1/1,3;
 2/9=110,12=2,17=6,18=5,40=1/2;
 3/5=1,6=6,7=101,11=2,16=1,25=1,30=1,71=1,74=-5/1,2,3;
 4//1;
 5/5=2,38=5/2;
 6/7=2,8=2,9=2,10=2,28=1/1;
 7//1,2,3,16;
 1/14=-1,18=20,19=15/3(2);
 2/9=110/2;
 99//99;
 2/9=110/2;
 3/5=1,6=6,7=101,11=2,16=1,25=1,30=1,71=1,74=-5/1,2,3;
 4/5=5,16=3/1;
 5/5=2,38=5/2;
 7//1,2,3,16;
 1/14=-1,18=20,19=15/3(-5);
 2/9=110/2;
 6/7=2,8=2,9=2,10=2,19=2,28=1/1;
 99/9=1/99;
 ---------------
 QM dihedral opt
 ---------------
 Charge =  0 Multiplicity = 1
 Symbolic Z-Matrix:
 C                     0.6959    2.69951  -0.88921 
 C                    -0.25588   1.70759  -0.23213 
 O                    -1.4693    1.84303  -0.33979 
 N                     0.29536   0.65028   0.45992 
 C                    -0.56979  -0.24957   1.24055 
 C                    -2.03531  -0.47184   0.81481 
 O                    -2.9075   -0.25948   1.64823 
 N                    -2.30181  -1.07078  -0.39242 
 C                    -1.33878  -1.21707  -1.46768 
 C                    -3.69804  -1.19707  -0.7896 
 H                     0.09971   3.31525  -1.56188 
 H                     1.49816   2.21628  -1.45391 
 H                     1.15757   3.3538   -0.1416 
 H                    -0.07509  -1.22782   1.27644 
 H                    -0.65179   0.11742   2.26857 
 H                    -0.32436  -1.29165  -1.07878 
 H                    -1.55653  -2.13558  -2.0236 
 H                    -1.37988  -0.37122  -2.16789 
 H                    -3.85634  -2.16188  -1.28386 
 H                    -4.31833  -1.1308    0.10191 
 H                    -3.98375  -0.39504  -1.48372 
 C                     1.72125   0.54755   0.77147 
 H                     2.21141   1.51329   0.64545 
 H                     1.83814   0.27654   1.82682 
 C                     2.44966  -0.49009  -0.08565 
 H                     2.388    -0.21215  -1.15173 
 H                     1.97375  -1.48061   0.01881 
 O                     3.78936  -0.52757   0.35482 
 C                     4.58189  -1.4584   -0.35531 
 H                     5.59001  -1.40894   0.06166 
 H                     4.20069  -2.48539  -0.24566 
 H                     4.62794  -1.21961  -1.42906 
 
 The following ModRedundant input section has been read:
 D       2       4       5       6 F                                           
 D       4       5       6       8 S  36 10.000                                

 GradGradGradGradGradGradGradGradGradGradGradGradGradGradGradGradGradGrad
 Berny optimization.
 Initialization pass.
                           ----------------------------
                           !    Initial Parameters    !
                           ! (Angstroms and Degrees)  !
 --------------------------                            --------------------------
 ! Name  Definition              Value          Derivative Info.                !
 --------------------------------------------------------------------------------
 ! R1    R(1,2)                  1.5237         estimate D2E/DX2                !
 ! R2    R(1,11)                 1.0895         estimate D2E/DX2                !
 ! R3    R(1,12)                 1.0936         estimate D2E/DX2                !
 ! R4    R(1,13)                 1.0955         estimate D2E/DX2                !
 ! R5    R(2,3)                  1.2257         estimate D2E/DX2                !
 ! R6    R(2,4)                  1.3787         estimate D2E/DX2                !
 ! R7    R(4,5)                  1.4723         estimate D2E/DX2                !
 ! R8    R(4,22)                 1.4631         estimate D2E/DX2                !
 ! R9    R(5,6)                  1.5422         estimate D2E/DX2                !
 ! R10   R(5,14)                 1.0968         estimate D2E/DX2                !
 ! R11   R(5,15)                 1.0946         estimate D2E/DX2                !
 ! R12   R(6,7)                  1.2249         estimate D2E/DX2                !
 ! R13   R(6,8)                  1.3737         estimate D2E/DX2                !
 ! R14   R(8,9)                  1.4509         estimate D2E/DX2                !
 ! R15   R(8,10)                 1.4571         estimate D2E/DX2                !
 ! R16   R(9,16)                 1.089          estimate D2E/DX2                !
 ! R17   R(9,17)                 1.0955         estimate D2E/DX2                !
 ! R18   R(9,18)                 1.0988         estimate D2E/DX2                !
 ! R19   R(10,19)                1.0955         estimate D2E/DX2                !
 ! R20   R(10,20)                1.0881         estimate D2E/DX2                !
 ! R21   R(10,21)                1.0985         estimate D2E/DX2                !
 ! R22   R(22,23)                1.0903         estimate D2E/DX2                !
 ! R23   R(22,24)                1.0958         estimate D2E/DX2                !
 ! R24   R(22,25)                1.5303         estimate D2E/DX2                !
 ! R25   R(25,26)                1.1034         estimate D2E/DX2                !
 ! R26   R(25,27)                1.1039         estimate D2E/DX2                !
 ! R27   R(25,28)                1.4107         estimate D2E/DX2                !
 ! R28   R(28,29)                1.4138         estimate D2E/DX2                !
 ! R29   R(29,30)                1.0921         estimate D2E/DX2                !
 ! R30   R(29,31)                1.1009         estimate D2E/DX2                !
 ! R31   R(29,32)                1.1009         estimate D2E/DX2                !
 ! A1    A(2,1,11)             106.9991         estimate D2E/DX2                !
 ! A2    A(2,1,12)             113.1579         estimate D2E/DX2                !
 ! A3    A(2,1,13)             110.9625         estimate D2E/DX2                !
 ! A4    A(11,1,12)            109.4105         estimate D2E/DX2                !
 ! A5    A(11,1,13)            108.3247         estimate D2E/DX2                !
 ! A6    A(12,1,13)            107.8861         estimate D2E/DX2                !
 ! A7    A(1,2,3)              120.57           estimate D2E/DX2                !
 ! A8    A(1,2,4)              117.774          estimate D2E/DX2                !
 ! A9    A(3,2,4)              121.6458         estimate D2E/DX2                !
 ! A10   A(2,4,5)              119.9961         estimate D2E/DX2                !
 ! A11   A(2,4,22)             123.3935         estimate D2E/DX2                !
 ! A12   A(5,4,22)             114.6358         estimate D2E/DX2                !
 ! A13   A(4,5,6)              120.0077         estimate D2E/DX2                !
 ! A14   A(4,5,14)             107.3039         estimate D2E/DX2                !
 ! A15   A(4,5,15)             109.6983         estimate D2E/DX2                !
 ! A16   A(6,5,14)             108.0047         estimate D2E/DX2                !
 ! A17   A(6,5,15)             103.6734         estimate D2E/DX2                !
 ! A18   A(14,5,15)            107.5828         estimate D2E/DX2                !
 ! A19   A(5,6,7)              117.6339         estimate D2E/DX2                !
 ! A20   A(5,6,8)              119.3268         estimate D2E/DX2                !
 ! A21   A(7,6,8)              122.3693         estimate D2E/DX2                !
 ! A22   A(6,8,9)              124.5049         estimate D2E/DX2                !
 ! A23   A(6,8,10)             117.5956         estimate D2E/DX2                !
 ! A24   A(9,8,10)             115.1679         estimate D2E/DX2                !
 ! A25   A(8,9,16)             111.1342         estimate D2E/DX2                !
 ! A26   A(8,9,17)             109.1897         estimate D2E/DX2                !
 ! A27   A(8,9,18)             111.705          estimate D2E/DX2                !
 ! A28   A(16,9,17)            107.9962         estimate D2E/DX2                !
 ! A29   A(16,9,18)            108.369          estimate D2E/DX2                !
 ! A30   A(17,9,18)            108.3363         estimate D2E/DX2                !
 ! A31   A(8,10,19)            109.7403         estimate D2E/DX2                !
 ! A32   A(8,10,20)            108.5199         estimate D2E/DX2                !
 ! A33   A(8,10,21)            110.989          estimate D2E/DX2                !
 ! A34   A(19,10,20)           109.9323         estimate D2E/DX2                !
 ! A35   A(19,10,21)           108.6836         estimate D2E/DX2                !
 ! A36   A(20,10,21)           108.9649         estimate D2E/DX2                !
 ! A37   A(4,22,23)            110.5673         estimate D2E/DX2                !
 ! A38   A(4,22,24)            109.049          estimate D2E/DX2                !
 ! A39   A(4,22,25)            113.0922         estimate D2E/DX2                !
 ! A40   A(23,22,24)           106.4037         estimate D2E/DX2                !
 ! A41   A(23,22,25)           108.7758         estimate D2E/DX2                !
 ! A42   A(24,22,25)           108.7193         estimate D2E/DX2                !
 ! A43   A(22,25,26)           110.1042         estimate D2E/DX2                !
 ! A44   A(22,25,27)           110.5004         estimate D2E/DX2                !
 ! A45   A(22,25,28)           107.1667         estimate D2E/DX2                !
 ! A46   A(26,25,27)           107.0585         estimate D2E/DX2                !
 ! A47   A(26,25,28)           111.1866         estimate D2E/DX2                !
 ! A48   A(27,25,28)           110.8573         estimate D2E/DX2                !
 ! A49   A(25,28,29)           113.1417         estimate D2E/DX2                !
 ! A50   A(28,29,30)           107.2105         estimate D2E/DX2                !
 ! A51   A(28,29,31)           111.7188         estimate D2E/DX2                !
 ! A52   A(28,29,32)           111.7479         estimate D2E/DX2                !
 ! A53   A(30,29,31)           108.8961         estimate D2E/DX2                !
 ! A54   A(30,29,32)           108.9019         estimate D2E/DX2                !
 ! A55   A(31,29,32)           108.2968         estimate D2E/DX2                !
 ! D1    D(11,1,2,3)           -11.4192         estimate D2E/DX2                !
 ! D2    D(11,1,2,4)           167.4417         estimate D2E/DX2                !
 ! D3    D(12,1,2,3)          -131.9989         estimate D2E/DX2                !
 ! D4    D(12,1,2,4)            46.862          estimate D2E/DX2                !
 ! D5    D(13,1,2,3)           106.5625         estimate D2E/DX2                !
 ! D6    D(13,1,2,4)           -74.5766         estimate D2E/DX2                !
 ! D7    D(1,2,4,5)            173.0537         estimate D2E/DX2                !
 ! D8    D(1,2,4,22)             9.9114         estimate D2E/DX2                !
 ! D9    D(3,2,4,5)             -8.0983         estimate D2E/DX2                !
 ! D10   D(3,2,4,22)          -171.2407         estimate D2E/DX2                !
 ! D11   D(2,4,5,6)             28.6699         Frozen                          !
 ! D12   D(2,4,5,14)           152.2969         estimate D2E/DX2                !
 ! D13   D(2,4,5,15)           -91.1128         estimate D2E/DX2                !
 ! D14   D(22,4,5,6)          -166.7782         estimate D2E/DX2                !
 ! D15   D(22,4,5,14)          -43.1512         estimate D2E/DX2                !
 ! D16   D(22,4,5,15)           73.4391         estimate D2E/DX2                !
 ! D17   D(2,4,22,23)           16.1312         estimate D2E/DX2                !
 ! D18   D(2,4,22,24)          132.7891         estimate D2E/DX2                !
 ! D19   D(2,4,22,25)         -106.1252         estimate D2E/DX2                !
 ! D20   D(5,4,22,23)         -147.8291         estimate D2E/DX2                !
 ! D21   D(5,4,22,24)          -31.1712         estimate D2E/DX2                !
 ! D22   D(5,4,22,25)           89.9145         estimate D2E/DX2                !
 ! D23   D(4,5,6,7)           -125.111          estimate D2E/DX2                !
 ! D24   D(4,5,6,8)             64.0447         Scan                            !
 ! D25   D(14,5,6,7)           111.5995         estimate D2E/DX2                !
 ! D26   D(14,5,6,8)           -59.2448         estimate D2E/DX2                !
 ! D27   D(15,5,6,7)            -2.3525         estimate D2E/DX2                !
 ! D28   D(15,5,6,8)          -173.1968         estimate D2E/DX2                !
 ! D29   D(5,6,8,9)            -16.4421         estimate D2E/DX2                !
 ! D30   D(5,6,8,10)          -176.7644         estimate D2E/DX2                !
 ! D31   D(7,6,8,9)            173.1656         estimate D2E/DX2                !
 ! D32   D(7,6,8,10)            12.8433         estimate D2E/DX2                !
 ! D33   D(6,8,9,16)            29.5086         estimate D2E/DX2                !
 ! D34   D(6,8,9,17)           148.5377         estimate D2E/DX2                !
 ! D35   D(6,8,9,18)           -91.6568         estimate D2E/DX2                !
 ! D36   D(10,8,9,16)         -169.7435         estimate D2E/DX2                !
 ! D37   D(10,8,9,17)          -50.7143         estimate D2E/DX2                !
 ! D38   D(10,8,9,18)           69.0912         estimate D2E/DX2                !
 ! D39   D(6,8,10,19)         -141.4107         estimate D2E/DX2                !
 ! D40   D(6,8,10,20)          -21.2662         estimate D2E/DX2                !
 ! D41   D(6,8,10,21)           98.4437         estimate D2E/DX2                !
 ! D42   D(9,8,10,19)           56.4436         estimate D2E/DX2                !
 ! D43   D(9,8,10,20)          176.588          estimate D2E/DX2                !
 ! D44   D(9,8,10,21)          -63.702          estimate D2E/DX2                !
 ! D45   D(4,22,25,26)          61.4623         estimate D2E/DX2                !
 ! D46   D(4,22,25,27)         -56.5953         estimate D2E/DX2                !
 ! D47   D(4,22,25,28)        -177.4818         estimate D2E/DX2                !
 ! D48   D(23,22,25,26)        -61.7896         estimate D2E/DX2                !
 ! D49   D(23,22,25,27)       -179.8473         estimate D2E/DX2                !
 ! D50   D(23,22,25,28)         59.2662         estimate D2E/DX2                !
 ! D51   D(24,22,25,26)       -177.2657         estimate D2E/DX2                !
 ! D52   D(24,22,25,27)         64.6767         estimate D2E/DX2                !
 ! D53   D(24,22,25,28)        -56.2098         estimate D2E/DX2                !
 ! D54   D(22,25,28,29)        179.7429         estimate D2E/DX2                !
 ! D55   D(26,25,28,29)        -59.8878         estimate D2E/DX2                !
 ! D56   D(27,25,28,29)         59.0826         estimate D2E/DX2                !
 ! D57   D(25,28,29,30)       -179.9067         estimate D2E/DX2                !
 ! D58   D(25,28,29,31)        -60.6762         estimate D2E/DX2                !
 ! D59   D(25,28,29,32)         60.839          estimate D2E/DX2                !
 --------------------------------------------------------------------------------
 Trust Radius=3.00D-01 FncErr=1.00D-07 GrdErr=1.00D-06
 Number of optimizations in scan=  37
 Number of steps in this run=    155 maximum allowed number of steps=    192.
 GradGradGradGradGradGradGradGradGradGradGradGradGradGradGradGradGradGrad

                          Input orientation:                          
 ---------------------------------------------------------------------
 Center     Atomic      Atomic             Coordinates (Angstroms)
 Number     Number       Type             X           Y           Z
 ---------------------------------------------------------------------
      1          6           0        0.695899    2.699510   -0.889212
      2          6           0       -0.255876    1.707589   -0.232130
      3          8           0       -1.469301    1.843031   -0.339792
      4          7           0        0.295356    0.650279    0.459916
      5          6           0       -0.569786   -0.249568    1.240552
      6          6           0       -2.035306   -0.471838    0.814807
      7          8           0       -2.907500   -0.259479    1.648232
      8          7           0       -2.301810   -1.070780   -0.392416
      9          6           0       -1.338784   -1.217065   -1.467677
     10          6           0       -3.698044   -1.197067   -0.789604
     11          1           0        0.099714    3.315250   -1.561876
     12          1           0        1.498163    2.216283   -1.453913
     13          1           0        1.157573    3.353797   -0.141597
     14          1           0       -0.075087   -1.227818    1.276442
     15          1           0       -0.651794    0.117422    2.268565
     16          1           0       -0.324359   -1.291651   -1.078775
     17          1           0       -1.556525   -2.135577   -2.023603
     18          1           0       -1.379880   -0.371224   -2.167889
     19          1           0       -3.856339   -2.161884   -1.283858
     20          1           0       -4.318332   -1.130800    0.101910
     21          1           0       -3.983753   -0.395036   -1.483724
     22          6           0        1.721253    0.547547    0.771465
     23          1           0        2.211411    1.513294    0.645446
     24          1           0        1.838142    0.276541    1.826821
     25          6           0        2.449659   -0.490093   -0.085645
     26          1           0        2.387995   -0.212151   -1.151731
     27          1           0        1.973745   -1.480608    0.018809
     28          8           0        3.789356   -0.527567    0.354815
     29          6           0        4.581887   -1.458395   -0.355307
     30          1           0        5.590013   -1.408935    0.061661
     31          1           0        4.200691   -2.485391   -0.245660
     32          1           0        4.627935   -1.219612   -1.429062
 ---------------------------------------------------------------------
                    Distance matrix (angstroms):
                    1          2          3          4          5
     1  C    0.000000
     2  C    1.523660   0.000000
     3  O    2.392386   1.225698   0.000000
     4  N    2.485946   1.378655   2.275127   0.000000
     5  C    3.851612   2.469371   2.772289   1.472273   0.000000
     6  C    4.518917   3.002058   2.648033   2.610954   1.542210
     7  O    5.308363   3.799504   3.231285   3.535257   2.373017
     8  N    4.842329   3.454109   3.030864   3.230137   2.518111
     9  C    4.451305   3.354529   3.263947   3.142133   2.976896
    10  C    5.873667   4.538317   3.796291   4.573973   3.847764
    11  H    1.089518   2.116422   2.474414   3.350819   4.583641
    12  H    1.093628   2.197311   3.191618   2.749883   4.197258
    13  H    1.095519   2.171643   3.036801   2.900732   4.228279
    14  H    4.550646   3.305312   3.739807   2.081151   1.096808
    15  H    4.295930   2.989792   3.232580   2.110033   1.094631
    16  H    4.123861   3.117200   3.418072   2.553959   2.554496
    17  H    5.453286   4.435199   4.321128   4.166332   3.896844
    18  H    3.920878   3.054834   2.872779   3.279519   3.505499
    19  H    6.671714   5.389090   4.756948   5.309009   4.564102
    20  H    6.387183   4.967050   4.141950   4.958480   4.015554
    21  H    5.641702   4.459214   3.555277   4.814685   4.370127
    22  C    2.905193   2.502387   3.618398   1.463147   2.470687
    23  H    2.461516   2.625908   3.824534   2.109617   3.346175
    24  H    3.814752   3.266816   4.252915   2.094826   2.533499
    25  C    3.727595   3.488722   4.567965   2.497820   3.306614
    26  H    3.377851   3.394278   4.445419   2.778548   3.804325
    27  H    4.464390   3.898561   4.798931   2.748135   3.078582
    28  O    4.640162   4.658790   5.809964   3.688686   4.456897
    29  C    5.716129   5.782956   6.893224   4.846178   5.527003
    30  H    6.460328   6.631248   7.782696   5.694942   6.377855
    31  H    6.291337   6.119008   7.133926   5.057856   5.474046
    32  H    5.577801   5.818313   6.909600   5.082910   5.923186
                    6          7          8          9         10
     6  C    0.000000
     7  O    1.224915   0.000000
     8  N    1.373733   2.278007   0.000000
     9  C    2.500048   3.617559   1.450863   0.000000
    10  C    2.421733   2.728933   1.457112   2.454850   0.000000
    11  H    4.954692   5.668052   5.135388   4.756052   5.948140
    12  H    4.985829   5.929803   5.135305   4.453800   6.252426
    13  H    5.073920   5.725737   5.622021   5.374297   6.686351
    14  H    2.151063   3.016367   2.787121   3.021131   4.170768
    15  H    2.091589   2.369615   3.348910   4.026452   4.512197
    16  H    2.680501   3.895454   2.104800   1.088975   3.387376
    17  H    3.324730   4.339038   2.085669   1.095504   2.643796
    18  H    3.055517   4.112042   2.119348   1.098832   2.820562
    19  H    3.252201   3.621684   2.098032   2.695284   1.095544
    20  H    2.480859   2.267324   2.077095   3.368791   1.088093
    21  H    3.014231   3.314490   2.115778   2.769810   1.098493
    22  C    3.892655   4.779683   4.489837   4.182277   5.903338
    23  H    4.690846   5.509224   5.303184   4.952175   6.657859
    24  H    4.072818   4.779156   4.886664   4.814295   6.298139
    25  C    4.574501   5.635483   4.796641   4.097658   6.228132
    26  H    4.847711   5.990351   4.827844   3.872797   6.175845
    27  H    4.209955   5.288925   4.314793   3.640322   5.736124
    28  O    5.843063   6.825883   6.160823   5.485864   7.603886
    29  C    6.791885   7.844902   6.894701   6.029092   8.295430
    30  H    7.719512   8.720446   7.912105   7.098163   9.329391
    31  H    6.638271   7.685564   6.656214   5.812724   8.021575
    32  H    7.070565   8.195997   7.008434   5.966844   8.350529
                   11         12         13         14         15
    11  H    0.000000
    12  H    1.781865   0.000000
    13  H    1.771368   1.769778   0.000000
    14  H    5.359671   4.668167   4.951917   0.000000
    15  H    5.046102   4.783762   4.422309   1.768211   0.000000
    16  H    4.651533   3.970884   4.965341   2.369232   3.646558
    17  H    5.715578   5.347369   6.406364   3.729475   4.931252
    18  H    4.018276   3.935491   4.941691   3.781488   4.522279
    19  H    6.762148   6.918667   7.541009   4.661060   5.299439
    20  H    6.484958   6.888771   7.082121   4.403869   4.438012
    21  H    5.517883   6.072172   6.502944   4.856924   5.044228
    22  C    3.966617   2.790476   3.004406   2.575609   2.838603
    23  H    3.546629   2.325989   2.262181   3.624903   3.575041
    24  H    4.872284   3.826408   3.715824   2.495287   2.533819
    25  C    4.709791   3.178360   4.055627   2.962070   3.940862
    26  H    4.224572   2.603921   3.905162   3.604771   4.587740
    27  H    5.386169   4.007754   4.905440   2.417283   3.809010
    28  O    5.661661   4.006217   4.715686   4.034063   4.878756
    29  C    6.658331   4.921336   5.910058   4.939957   6.062947
    30  H    7.422747   5.672954   6.509336   5.796711   6.794141
    31  H    7.224810   5.556012   6.585401   4.709624   6.053311
    32  H    6.409945   4.647738   5.883625   5.425701   6.582981
                   16         17         18         19         20
    16  H    0.000000
    17  H    1.767242   0.000000
    18  H    1.774114   1.779034   0.000000
    19  H    3.643384   2.416001   3.181324   0.000000
    20  H    4.167938   3.626977   3.789913   1.787995   0.000000
    21  H    3.789336   3.035192   2.692360   1.782676   1.779755
    22  C    3.315202   5.074977   4.370465   6.532603   6.304105
    23  H    4.155813   5.885187   4.935953   7.351649   7.065706
    24  H    3.946913   5.671670   5.170394   6.931764   6.546610
    25  C    3.053519   4.744766   4.360647   6.632964   6.800837
    26  H    2.920190   4.474256   3.905735   6.542983   6.884065
    27  H    2.553758   4.130767   4.154417   6.012567   6.302341
    28  O    4.422856   6.068032   5.754084   7.988297   8.134031
    29  C    4.962102   6.397022   6.325351   8.518260   8.917974
    30  H    6.024462   7.479929   7.391018   9.571359   9.912330
    31  H    4.753438   6.035643   6.269565   8.130083   8.633045
    32  H    4.965189   6.280129   6.112239   8.537673   9.076754
                   21         22         23         24         25
    21  H    0.000000
    22  C    6.206564   0.000000
    23  H    6.823133   1.090322   0.000000
    24  H    6.730913   1.095848   1.750581   0.000000
    25  C    6.584258   1.530330   2.145883   2.149234   0.000000
    26  H    6.383012   2.172641   2.497636   3.068050   1.103446
    27  H    6.239219   2.177994   3.067997   2.524850   1.103868
    28  O    7.988680   2.367809   2.596053   2.573058   1.410744
    29  C    8.704840   3.671055   3.930852   3.911499   2.357270
    30  H    9.750549   4.393057   4.505017   4.475841   3.275331
    31  H    8.537418   4.047329   4.554205   4.183908   2.659498
    32  H    8.651248   4.051416   4.196659   4.541166   2.661175
                   26         27         28         29         30
    26  H    0.000000
    27  H    1.775035   0.000000
    28  O    2.081581   2.077891   0.000000
    29  C    2.645860   2.634931   1.413796   0.000000
    30  H    3.627331   3.617232   2.026108   1.092074   0.000000
    31  H    3.045398   2.457401   2.088742   1.100933   1.784214
    32  H    2.471684   3.034662   2.089105   1.100948   1.784290
                   31         32
    31  H    0.000000
    32  H    1.784706   0.000000
 Stoichiometry    C9H18N2O3
 Framework group  C1[X(C9H18N2O3)]
 Deg. of freedom    90
 Full point group                 C1      NOp   1
 Largest Abelian subgroup         C1      NOp   1
 Largest concise Abelian subgroup C1      NOp   1
                         Standard orientation:                         
 ---------------------------------------------------------------------
 Center     Atomic      Atomic             Coordinates (Angstroms)
 Number     Number       Type             X           Y           Z
 ---------------------------------------------------------------------
      1          6           0        0.695899    2.699510   -0.889212
      2          6           0       -0.255876    1.707589   -0.232130
      3          8           0       -1.469301    1.843031   -0.339792
      4          7           0        0.295356    0.650279    0.459916
      5          6           0       -0.569786   -0.249568    1.240552
      6          6           0       -2.035306   -0.471838    0.814807
      7          8           0       -2.907500   -0.259479    1.648232
      8          7           0       -2.301810   -1.070780   -0.392416
      9          6           0       -1.338784   -1.217065   -1.467677
     10          6           0       -3.698044   -1.197067   -0.789604
     11          1           0        0.099714    3.315250   -1.561876
     12          1           0        1.498163    2.216283   -1.453913
     13          1           0        1.157573    3.353797   -0.141597
     14          1           0       -0.075087   -1.227818    1.276442
     15          1           0       -0.651794    0.117422    2.268565
     16          1           0       -0.324359   -1.291651   -1.078775
     17          1           0       -1.556525   -2.135577   -2.023603
     18          1           0       -1.379880   -0.371224   -2.167889
     19          1           0       -3.856339   -2.161884   -1.283858
     20          1           0       -4.318332   -1.130800    0.101910
     21          1           0       -3.983753   -0.395036   -1.483724
     22          6           0        1.721253    0.547547    0.771465
     23          1           0        2.211411    1.513294    0.645446
     24          1           0        1.838142    0.276541    1.826821
     25          6           0        2.449659   -0.490093   -0.085645
     26          1           0        2.387995   -0.212151   -1.151731
     27          1           0        1.973745   -1.480608    0.018809
     28          8           0        3.789356   -0.527567    0.354815
     29          6           0        4.581887   -1.458395   -0.355307
     30          1           0        5.590013   -1.408935    0.061661
     31          1           0        4.200691   -2.485391   -0.245660
     32          1           0        4.627935   -1.219612   -1.429062
 ---------------------------------------------------------------------
 Rotational constants (GHZ):      1.0236069      0.3635338      0.3245026
 Standard basis: 6-31G(d,p) (6D, 7F)
 There are   300 symmetry adapted basis functions of A   symmetry.
 Integral buffers will be    131072 words long.
 Raffenetti 2 integral format.
 Two-electron integral symmetry is turned on.
   300 basis functions,   518 primitive gaussians,   300 cartesian basis functions
    55 alpha electrons       55 beta electrons
       nuclear repulsion energy       978.7152451261 Hartrees.
 NAtoms=   32 NActive=   32 NUniq=   32 SFac= 1.00D+00 NAtFMM=   60 NAOKFM=F Big=F
 One-electron integrals computed using PRISM.
 NBasis=   300 RedAO= T  NBF=   300
 NBsUse=   300 1.00D-06 NBFU=   300
 Harris functional with IExCor=  402 diagonalized for initial guess.
 ExpMin= 1.61D-01 ExpMax= 5.48D+03 ExpMxC= 8.25D+02 IAcc=1 IRadAn=         1 AccDes= 0.00D+00
 HarFok:  IExCor=  402 AccDes= 0.00D+00 IRadAn=         1 IDoV= 1
 ScaDFX=  1.000000  1.000000  1.000000  1.000000
 FoFCou: FMM=F IPFlag=           0 FMFlag=      100000 FMFlg1=           0
         NFxFlg=           0 DoJE=T BraDBF=F KetDBF=T FulRan=T
         Omega=  0.000000  0.000000  1.000000  0.000000  0.000000 ICntrl=     500 IOpCl=  0
         NMat0=    1 NMatS0=    1 NMatT0=    0 NMatD0=    1 NMtDS0=    0 NMtDT0=    0
         I1Cent=           4 NGrid=           0.
 Petite list used in FoFCou.
 Initial guess orbital symmetries:
       Occupied  (A) (A) (A) (A) (A) (A) (A) (A) (A) (A) (A) (A)
                 (A) (A) (A) (A) (A) (A) (A) (A) (A) (A) (A) (A)
                 (A) (A) (A) (A) (A) (A) (A) (A) (A) (A) (A) (A)
                 (A) (A) (A) (A) (A) (A) (A) (A) (A) (A) (A) (A)
                 (A) (A) (A) (A) (A) (A) (A)
       Virtual   (A) (A) (A) (A) (A) (A) (A) (A) (A) (A) (A) (A)
                 (A) (A) (A) (A) (A) (A) (A) (A) (A) (A) (A) (A)
                 (A) (A) (A) (A) (A) (A) (A) (A) (A) (A) (A) (A)
                 (A) (A) (A) (A) (A) (A) (A) (A) (A) (A) (A) (A)
                 (A) (A) (A) (A) (A) (A) (A) (A) (A) (A) (A) (A)
                 (A) (A) (A) (A) (A) (A) (A) (A) (A) (A) (A) (A)
                 (A) (A) (A) (A) (A) (A) (A) (A) (A) (A) (A) (A)
                 (A) (A) (A) (A) (A) (A) (A) (A) (A) (A) (A) (A)
                 (A) (A) (A) (A) (A) (A) (A) (A) (A) (A) (A) (A)
                 (A) (A) (A) (A) (A) (A) (A) (A) (A) (A) (A) (A)
                 (A) (A) (A) (A) (A) (A) (A) (A) (A) (A) (A) (A)
                 (A) (A) (A) (A) (A) (A) (A) (A) (A) (A) (A) (A)
                 (A) (A) (A) (A) (A) (A) (A) (A) (A) (A) (A) (A)
                 (A) (A) (A) (A) (A) (A) (A) (A) (A) (A) (A) (A)
                 (A) (A) (A) (A) (A) (A) (A) (A) (A) (A) (A) (A)
                 (A) (A) (A) (A) (A) (A) (A) (A) (A) (A) (A) (A)
                 (A) (A) (A) (A) (A) (A) (A) (A) (A) (A) (A) (A)
                 (A) (A) (A) (A) (A) (A) (A) (A) (A) (A) (A) (A)
                 (A) (A) (A) (A) (A) (A) (A) (A) (A) (A) (A) (A)
                 (A) (A) (A) (A) (A) (A) (A) (A) (A) (A) (A) (A)
                 (A) (A) (A) (A) (A)
 The electronic state of the initial guess is 1-A.
 Requested convergence on RMS density matrix=1.00D-08 within 128 cycles.
 Requested convergence on MAX density matrix=1.00D-06.
 Requested convergence on             energy=1.00D-06.
 No special actions if energy rises.
 Keep R1 ints in memory in canonical form, NReq=1033483601.
 Integral accuracy reduced to 1.0D-05 until final iterations.
 Initial convergence to 1.0D-05 achieved.  Increase integral accuracy.
 SCF Done:  E(RB3LYP) =  -688.987215540     A.U. after   14 cycles
             Convg  =    0.8041D-08             -V/T =  2.0093

 **********************************************************************

            Population analysis using the SCF density.

 **********************************************************************

 Orbital symmetries:
       Occupied  (A) (A) (A) (A) (A) (A) (A) (A) (A) (A) (A) (A)
                 (A) (A) (A) (A) (A) (A) (A) (A) (A) (A) (A) (A)
                 (A) (A) (A) (A) (A) (A) (A) (A) (A) (A) (A) (A)
                 (A) (A) (A) (A) (A) (A) (A) (A) (A) (A) (A) (A)
                 (A) (A) (A) (A) (A) (A) (A)
       Virtual   (A) (A) (A) (A) (A) (A) (A) (A) (A) (A) (A) (A)
                 (A) (A) (A) (A) (A) (A) (A) (A) (A) (A) (A) (A)
                 (A) (A) (A) (A) (A) (A) (A) (A) (A) (A) (A) (A)
                 (A) (A) (A) (A) (A) (A) (A) (A) (A) (A) (A) (A)
                 (A) (A) (A) (A) (A) (A) (A) (A) (A) (A) (A) (A)
                 (A) (A) (A) (A) (A) (A) (A) (A) (A) (A) (A) (A)
                 (A) (A) (A) (A) (A) (A) (A) (A) (A) (A) (A) (A)
                 (A) (A) (A) (A) (A) (A) (A) (A) (A) (A) (A) (A)
                 (A) (A) (A) (A) (A) (A) (A) (A) (A) (A) (A) (A)
                 (A) (A) (A) (A) (A) (A) (A) (A) (A) (A) (A) (A)
                 (A) (A) (A) (A) (A) (A) (A) (A) (A) (A) (A) (A)
                 (A) (A) (A) (A) (A) (A) (A) (A) (A) (A) (A) (A)
                 (A) (A) (A) (A) (A) (A) (A) (A) (A) (A) (A) (A)
                 (A) (A) (A) (A) (A) (A) (A) (A) (A) (A) (A) (A)
                 (A) (A) (A) (A) (A) (A) (A) (A) (A) (A) (A) (A)
                 (A) (A) (A) (A) (A) (A) (A) (A) (A) (A) (A) (A)
                 (A) (A) (A) (A) (A) (A) (A) (A) (A) (A) (A) (A)
                 (A) (A) (A) (A) (A) (A) (A) (A) (A) (A) (A) (A)
                 (A) (A) (A) (A) (A) (A) (A) (A) (A) (A) (A) (A)
                 (A) (A) (A) (A) (A) (A) (A) (A) (A) (A) (A) (A)
                 (A) (A) (A) (A) (A)
 The electronic state is 1-A.
 Alpha  occ. eigenvalues --  -19.16578 -19.11418 -19.09518 -14.37380 -14.35260
 Alpha  occ. eigenvalues --  -10.29141 -10.27735 -10.25081 -10.24156 -10.23687
 Alpha  occ. eigenvalues --  -10.23016 -10.21767 -10.20037 -10.19671  -1.04986
 Alpha  occ. eigenvalues --   -1.03702  -1.01677  -0.94013  -0.92021  -0.77824
 Alpha  occ. eigenvalues --   -0.76073  -0.72168  -0.71066  -0.68828  -0.67168
 Alpha  occ. eigenvalues --   -0.63440  -0.57030  -0.53542  -0.51551  -0.50699
 Alpha  occ. eigenvalues --   -0.49001  -0.48520  -0.47345  -0.46368  -0.46102
 Alpha  occ. eigenvalues --   -0.45271  -0.44407  -0.43150  -0.42490  -0.40346
 Alpha  occ. eigenvalues --   -0.39926  -0.39677  -0.39539  -0.39098  -0.38162
 Alpha  occ. eigenvalues --   -0.37306  -0.36719  -0.35632  -0.35024  -0.33584
 Alpha  occ. eigenvalues --   -0.27273  -0.25333  -0.24521  -0.23719  -0.22541
 Alpha virt. eigenvalues --    0.01947   0.03174   0.06550   0.07718   0.08997
 Alpha virt. eigenvalues --    0.10474   0.11757   0.12033   0.13312   0.14282
 Alpha virt. eigenvalues --    0.14395   0.15122   0.15406   0.15859   0.16244
 Alpha virt. eigenvalues --    0.16733   0.17211   0.17726   0.18707   0.19101
 Alpha virt. eigenvalues --    0.20126   0.20580   0.20718   0.22018   0.22838
 Alpha virt. eigenvalues --    0.24628   0.25059   0.26953   0.29371   0.33568
 Alpha virt. eigenvalues --    0.34789   0.37303   0.40379   0.47064   0.48158
 Alpha virt. eigenvalues --    0.49889   0.50536   0.51094   0.53035   0.53432
 Alpha virt. eigenvalues --    0.54610   0.55099   0.55375   0.56658   0.57433
 Alpha virt. eigenvalues --    0.58087   0.60038   0.62673   0.63731   0.64113
 Alpha virt. eigenvalues --    0.66513   0.68255   0.68725   0.70066   0.71748
 Alpha virt. eigenvalues --    0.73064   0.74122   0.74295   0.76018   0.78254
 Alpha virt. eigenvalues --    0.78371   0.79109   0.79493   0.81605   0.82872
 Alpha virt. eigenvalues --    0.83558   0.84267   0.85482   0.85772   0.86599
 Alpha virt. eigenvalues --    0.87136   0.87792   0.89319   0.89738   0.90043
 Alpha virt. eigenvalues --    0.91803   0.91997   0.92473   0.93690   0.94786
 Alpha virt. eigenvalues --    0.96225   0.97070   0.98470   0.99032   1.00659
 Alpha virt. eigenvalues --    1.03541   1.04781   1.05849   1.07170   1.09445
 Alpha virt. eigenvalues --    1.11019   1.15410   1.18431   1.19866   1.21835
 Alpha virt. eigenvalues --    1.24815   1.28434   1.30329   1.32652   1.33273
 Alpha virt. eigenvalues --    1.35479   1.36035   1.37671   1.37831   1.40896
 Alpha virt. eigenvalues --    1.42133   1.44833   1.48069   1.50085   1.53539
 Alpha virt. eigenvalues --    1.57194   1.58968   1.60662   1.63261   1.65920
 Alpha virt. eigenvalues --    1.68297   1.68836   1.70496   1.73456   1.73773
 Alpha virt. eigenvalues --    1.75196   1.78076   1.79536   1.80140   1.83225
 Alpha virt. eigenvalues --    1.83752   1.84710   1.86704   1.87065   1.88495
 Alpha virt. eigenvalues --    1.89250   1.89696   1.93084   1.94018   1.94565
 Alpha virt. eigenvalues --    1.95411   1.96316   1.96770   1.99118   1.99508
 Alpha virt. eigenvalues --    2.01449   2.01815   2.01902   2.02186   2.02984
 Alpha virt. eigenvalues --    2.04488   2.04598   2.04816   2.07119   2.07889
 Alpha virt. eigenvalues --    2.08675   2.08885   2.09343   2.10777   2.12100
 Alpha virt. eigenvalues --    2.13439   2.13894   2.15595   2.17709   2.20166
 Alpha virt. eigenvalues --    2.21450   2.22263   2.25347   2.28143   2.28923
 Alpha virt. eigenvalues --    2.30672   2.33414   2.35745   2.37270   2.39225
 Alpha virt. eigenvalues --    2.43978   2.44829   2.45576   2.49032   2.51055
 Alpha virt. eigenvalues --    2.52049   2.52673   2.55079   2.56219   2.56737
 Alpha virt. eigenvalues --    2.59404   2.59909   2.62168   2.62520   2.65012
 Alpha virt. eigenvalues --    2.66490   2.68267   2.69148   2.70000   2.70588
 Alpha virt. eigenvalues --    2.72020   2.73281   2.74353   2.76663   2.78143
 Alpha virt. eigenvalues --    2.79682   2.82570   2.83520   2.84835   2.85772
 Alpha virt. eigenvalues --    2.86616   2.88798   2.89228   2.90461   2.92895
 Alpha virt. eigenvalues --    2.95825   2.96992   3.01110   3.04704   3.07302
 Alpha virt. eigenvalues --    3.10570   3.13976   3.16308   3.17100   3.19550
 Alpha virt. eigenvalues --    3.22191   3.24559   3.25774   3.34091   3.34823
 Alpha virt. eigenvalues --    3.36771   3.40194   3.41377   3.42039   3.42798
 Alpha virt. eigenvalues --    3.44424   3.45494   3.46018   3.46803   3.51389
 Alpha virt. eigenvalues --    3.53807   3.96916   3.99470   4.05934   4.10710
 Alpha virt. eigenvalues --    4.23824   4.33547   4.35327   4.41958   4.45073
 Alpha virt. eigenvalues --    4.51827   4.55609   4.57764   4.69536   4.71820
          Condensed to atoms (all electrons):
              1          2          3          4          5          6
     1  C    5.166611   0.343838  -0.078937  -0.124820   0.005587   0.000166
     2  C    0.343838   4.370073   0.572626   0.260179  -0.033492   0.000270
     3  O   -0.078937   0.572626   8.078075  -0.094378  -0.002250   0.021933
     4  N   -0.124820   0.260179  -0.094378   7.152377   0.226069  -0.023167
     5  C    0.005587  -0.033492  -0.002250   0.226069   5.094566   0.321787
     6  C    0.000166   0.000270   0.021933  -0.023167   0.321787   4.346916
     7  O   -0.000014   0.000161  -0.003556   0.001503  -0.075617   0.573796
     8  N   -0.000048  -0.001196  -0.007102   0.005022  -0.111842   0.259659
     9  C   -0.000041   0.001266  -0.000019  -0.005618  -0.001567  -0.022103
    10  C    0.000000  -0.000069  -0.000212  -0.000163   0.005871  -0.030048
    11  H    0.368682  -0.022929   0.004970   0.004484  -0.000120  -0.000004
    12  H    0.357408  -0.022133   0.001956   0.003108   0.000026  -0.000016
    13  H    0.363707  -0.019541   0.000781   0.001602  -0.000240   0.000001
    14  H   -0.000171   0.003945   0.000498  -0.044951   0.356229  -0.025452
    15  H   -0.000086  -0.001204   0.000908  -0.039517   0.368742  -0.026872
    16  H   -0.000069  -0.000791  -0.000753   0.002097   0.005828  -0.007469
    17  H    0.000000   0.000058   0.000062   0.000279  -0.000491   0.002181
    18  H    0.000247   0.002412   0.003881  -0.002068   0.000444  -0.001159
    19  H    0.000000  -0.000001  -0.000003  -0.000001  -0.000181   0.003049
    20  H    0.000000  -0.000006  -0.000028  -0.000007   0.000941  -0.004363
    21  H    0.000004   0.000010   0.000723  -0.000010  -0.000063  -0.000325
    22  C    0.001300  -0.021656   0.002532   0.241817  -0.035436   0.002970
    23  H    0.007320  -0.008153   0.000135  -0.029795   0.003001  -0.000115
    24  H   -0.000312   0.002158  -0.000053  -0.037718  -0.000513   0.000130
    25  C   -0.001297  -0.000687  -0.000034  -0.051885  -0.003047  -0.000072
    26  H   -0.000602   0.001233  -0.000029   0.003193   0.000015   0.000023
    27  H    0.000077  -0.000107   0.000002   0.000770   0.000385  -0.000167
    28  O    0.000000   0.000015   0.000000   0.002011  -0.000002   0.000000
    29  C    0.000000  -0.000002   0.000000  -0.000125   0.000000   0.000000
    30  H    0.000000   0.000000   0.000000   0.000001   0.000000   0.000000
    31  H    0.000000   0.000000   0.000000   0.000011  -0.000002   0.000000
    32  H   -0.000001   0.000000   0.000000   0.000008   0.000000   0.000000
              7          8          9         10         11         12
     1  C   -0.000014  -0.000048  -0.000041   0.000000   0.368682   0.357408
     2  C    0.000161  -0.001196   0.001266  -0.000069  -0.022929  -0.022133
     3  O   -0.003556  -0.007102  -0.000019  -0.000212   0.004970   0.001956
     4  N    0.001503   0.005022  -0.005618  -0.000163   0.004484   0.003108
     5  C   -0.075617  -0.111842  -0.001567   0.005871  -0.000120   0.000026
     6  C    0.573796   0.259659  -0.022103  -0.030048  -0.000004  -0.000016
     7  O    8.093101  -0.093668   0.003015  -0.012359   0.000000   0.000000
     8  N   -0.093668   7.016176   0.295666   0.301287   0.000003   0.000006
     9  C    0.003015   0.295666   4.809147  -0.052514  -0.000009   0.000005
    10  C   -0.012359   0.301287  -0.052514   4.814458   0.000000   0.000000
    11  H    0.000000   0.000003  -0.000009   0.000000   0.541811  -0.023356
    12  H    0.000000   0.000006   0.000005   0.000000  -0.023356   0.591243
    13  H    0.000000  -0.000001   0.000003   0.000000  -0.021048  -0.029911
    14  H    0.001528   0.002704  -0.000865  -0.000072   0.000004  -0.000003
    15  H    0.008406   0.005192   0.000051  -0.000166  -0.000001  -0.000004
    16  H    0.000061  -0.030652   0.382331   0.004540   0.000000   0.000047
    17  H   -0.000066  -0.041450   0.383520  -0.004889   0.000000  -0.000002
    18  H    0.000002  -0.046578   0.377998  -0.000249   0.000017  -0.000069
    19  H    0.000701  -0.042398  -0.003047   0.380063   0.000000   0.000000
    20  H    0.023747  -0.035107   0.004732   0.383308   0.000000   0.000000
    21  H    0.000776  -0.048353  -0.001809   0.388904   0.000000   0.000000
    22  C   -0.000047  -0.000148   0.000227   0.000004   0.000361  -0.001972
    23  H    0.000001   0.000005  -0.000023   0.000000  -0.000004  -0.002148
    24  H   -0.000004  -0.000001  -0.000020   0.000000  -0.000013   0.000221
    25  C   -0.000001   0.000005  -0.000228   0.000000   0.000016  -0.000123
    26  H    0.000000  -0.000002  -0.000017   0.000000  -0.000035   0.003305
    27  H    0.000001   0.000016  -0.000659  -0.000001   0.000001  -0.000088
    28  O    0.000000   0.000000   0.000003   0.000000   0.000000  -0.000059
    29  C    0.000000   0.000000   0.000000   0.000000   0.000000  -0.000003
    30  H    0.000000   0.000000   0.000000   0.000000   0.000000   0.000000
    31  H    0.000000   0.000000  -0.000001   0.000000   0.000000   0.000000
    32  H    0.000000   0.000000   0.000000   0.000000   0.000000   0.000004
             13         14         15         16         17         18
     1  C    0.363707  -0.000171  -0.000086  -0.000069   0.000000   0.000247
     2  C   -0.019541   0.003945  -0.001204  -0.000791   0.000058   0.002412
     3  O    0.000781   0.000498   0.000908  -0.000753   0.000062   0.003881
     4  N    0.001602  -0.044951  -0.039517   0.002097   0.000279  -0.002068
     5  C   -0.000240   0.356229   0.368742   0.005828  -0.000491   0.000444
     6  C    0.000001  -0.025452  -0.026872  -0.007469   0.002181  -0.001159
     7  O    0.000000   0.001528   0.008406   0.000061  -0.000066   0.000002
     8  N   -0.000001   0.002704   0.005192  -0.030652  -0.041450  -0.046578
     9  C    0.000003  -0.000865   0.000051   0.382331   0.383520   0.377998
    10  C    0.000000  -0.000072  -0.000166   0.004540  -0.004889  -0.000249
    11  H   -0.021048   0.000004  -0.000001   0.000000   0.000000   0.000017
    12  H   -0.029911  -0.000003  -0.000004   0.000047  -0.000002  -0.000069
    13  H    0.565837  -0.000007   0.000034  -0.000001   0.000000   0.000004
    14  H   -0.000007   0.624317  -0.035712  -0.001520  -0.000060   0.000209
    15  H    0.000034  -0.035712   0.571982   0.000217   0.000006  -0.000029
    16  H   -0.000001  -0.001520   0.000217   0.592615  -0.026552  -0.035652
    17  H    0.000000  -0.000060   0.000006  -0.026552   0.619217  -0.045865
    18  H    0.000004   0.000209  -0.000029  -0.035652  -0.045865   0.618288
    19  H    0.000000   0.000001   0.000003   0.000124   0.006846  -0.001603
    20  H    0.000000  -0.000056  -0.000023  -0.000235   0.000102  -0.000204
    21  H    0.000000   0.000000   0.000003  -0.000129  -0.001964   0.006769
    22  C   -0.002681   0.000823  -0.005353  -0.001494   0.000010  -0.000052
    23  H    0.002014   0.000160   0.000274   0.000031   0.000000  -0.000001
    24  H    0.000203  -0.003602   0.005138   0.000077   0.000001  -0.000003
    25  C    0.000052   0.000485  -0.000362   0.000915  -0.000019   0.000046
    26  H    0.000054  -0.000257  -0.000002   0.000679   0.000004   0.000005
    27  H   -0.000006   0.003670   0.000104   0.002714   0.000044  -0.000036
    28  O   -0.000003  -0.000158   0.000005  -0.000008   0.000000   0.000000
    29  C    0.000000   0.000003   0.000000  -0.000002   0.000000   0.000000
    30  H    0.000000   0.000000   0.000000   0.000000   0.000000   0.000000
    31  H    0.000000   0.000003   0.000000   0.000006   0.000000   0.000000
    32  H    0.000000   0.000000   0.000000   0.000001   0.000000   0.000000
             19         20         21         22         23         24
     1  C    0.000000   0.000000   0.000004   0.001300   0.007320  -0.000312
     2  C   -0.000001  -0.000006   0.000010  -0.021656  -0.008153   0.002158
     3  O   -0.000003  -0.000028   0.000723   0.002532   0.000135  -0.000053
     4  N   -0.000001  -0.000007  -0.000010   0.241817  -0.029795  -0.037718
     5  C   -0.000181   0.000941  -0.000063  -0.035436   0.003001  -0.000513
     6  C    0.003049  -0.004363  -0.000325   0.002970  -0.000115   0.000130
     7  O    0.000701   0.023747   0.000776  -0.000047   0.000001  -0.000004
     8  N   -0.042398  -0.035107  -0.048353  -0.000148   0.000005  -0.000001
     9  C   -0.003047   0.004732  -0.001809   0.000227  -0.000023  -0.000020
    10  C    0.380063   0.383308   0.388904   0.000004   0.000000   0.000000
    11  H    0.000000   0.000000   0.000000   0.000361  -0.000004  -0.000013
    12  H    0.000000   0.000000   0.000000  -0.001972  -0.002148   0.000221
    13  H    0.000000   0.000000   0.000000  -0.002681   0.002014   0.000203
    14  H    0.000001  -0.000056   0.000000   0.000823   0.000160  -0.003602
    15  H    0.000003  -0.000023   0.000003  -0.005353   0.000274   0.005138
    16  H    0.000124  -0.000235  -0.000129  -0.001494   0.000031   0.000077
    17  H    0.006846   0.000102  -0.001964   0.000010   0.000000   0.000001
    18  H   -0.001603  -0.000204   0.006769  -0.000052  -0.000001  -0.000003
    19  H    0.625121  -0.023211  -0.044920   0.000000   0.000000   0.000000
    20  H   -0.023211   0.521093  -0.027608   0.000000   0.000000   0.000000
    21  H   -0.044920  -0.027608   0.608210   0.000000   0.000000   0.000000
    22  C    0.000000   0.000000   0.000000   4.899347   0.377290   0.378637
    23  H    0.000000   0.000000   0.000000   0.377290   0.591508  -0.030934
    24  H    0.000000   0.000000   0.000000   0.378637  -0.030934   0.602483
    25  C    0.000000   0.000000   0.000000   0.361150  -0.041482  -0.048848
    26  H    0.000000   0.000000   0.000000  -0.039249  -0.008879   0.006736
    27  H    0.000000   0.000000   0.000000  -0.039026   0.006511  -0.008120
    28  O    0.000000   0.000000   0.000000  -0.040277   0.005357   0.006182
    29  C    0.000000   0.000000   0.000000   0.004539  -0.000085  -0.000118
    30  H    0.000000   0.000000   0.000000  -0.000256   0.000006   0.000009
    31  H    0.000000   0.000000   0.000000   0.000027   0.000048  -0.000057
    32  H    0.000000   0.000000   0.000000   0.000024  -0.000066   0.000048
             25         26         27         28         29         30
     1  C   -0.001297  -0.000602   0.000077   0.000000   0.000000   0.000000
     2  C   -0.000687   0.001233  -0.000107   0.000015  -0.000002   0.000000
     3  O   -0.000034  -0.000029   0.000002   0.000000   0.000000   0.000000
     4  N   -0.051885   0.003193   0.000770   0.002011  -0.000125   0.000001
     5  C   -0.003047   0.000015   0.000385  -0.000002   0.000000   0.000000
     6  C   -0.000072   0.000023  -0.000167   0.000000   0.000000   0.000000
     7  O   -0.000001   0.000000   0.000001   0.000000   0.000000   0.000000
     8  N    0.000005  -0.000002   0.000016   0.000000   0.000000   0.000000
     9  C   -0.000228  -0.000017  -0.000659   0.000003   0.000000   0.000000
    10  C    0.000000   0.000000  -0.000001   0.000000   0.000000   0.000000
    11  H    0.000016  -0.000035   0.000001   0.000000   0.000000   0.000000
    12  H   -0.000123   0.003305  -0.000088  -0.000059  -0.000003   0.000000
    13  H    0.000052   0.000054  -0.000006  -0.000003   0.000000   0.000000
    14  H    0.000485  -0.000257   0.003670  -0.000158   0.000003   0.000000
    15  H   -0.000362  -0.000002   0.000104   0.000005   0.000000   0.000000
    16  H    0.000915   0.000679   0.002714  -0.000008  -0.000002   0.000000
    17  H   -0.000019   0.000004   0.000044   0.000000   0.000000   0.000000
    18  H    0.000046   0.000005  -0.000036   0.000000   0.000000   0.000000
    19  H    0.000000   0.000000   0.000000   0.000000   0.000000   0.000000
    20  H    0.000000   0.000000   0.000000   0.000000   0.000000   0.000000
    21  H    0.000000   0.000000   0.000000   0.000000   0.000000   0.000000
    22  C    0.361150  -0.039249  -0.039026  -0.040277   0.004539  -0.000256
    23  H   -0.041482  -0.008879   0.006511   0.005357  -0.000085   0.000006
    24  H   -0.048848   0.006736  -0.008120   0.006182  -0.000118   0.000009
    25  C    4.779176   0.360687   0.364408   0.231378  -0.034104   0.005303
    26  H    0.360687   0.685328  -0.062455  -0.039188  -0.006083  -0.000112
    27  H    0.364408  -0.062455   0.683119  -0.038678  -0.005942  -0.000113
    28  O    0.231378  -0.039188  -0.038678   8.209067   0.257210  -0.032554
    29  C   -0.034104  -0.006083  -0.005942   0.257210   4.709841   0.395322
    30  H    0.005303  -0.000112  -0.000113  -0.032554   0.395322   0.579351
    31  H   -0.009045  -0.002659   0.013158  -0.037349   0.371235  -0.034200
    32  H   -0.008953   0.013058  -0.002715  -0.037394   0.371085  -0.034495
             31         32
     1  C    0.000000  -0.000001
     2  C    0.000000   0.000000
     3  O    0.000000   0.000000
     4  N    0.000011   0.000008
     5  C   -0.000002   0.000000
     6  C    0.000000   0.000000
     7  O    0.000000   0.000000
     8  N    0.000000   0.000000
     9  C   -0.000001   0.000000
    10  C    0.000000   0.000000
    11  H    0.000000   0.000000
    12  H    0.000000   0.000004
    13  H    0.000000   0.000000
    14  H    0.000003   0.000000
    15  H    0.000000   0.000000
    16  H    0.000006   0.000001
    17  H    0.000000   0.000000
    18  H    0.000000   0.000000
    19  H    0.000000   0.000000
    20  H    0.000000   0.000000
    21  H    0.000000   0.000000
    22  C    0.000027   0.000024
    23  H    0.000048  -0.000066
    24  H   -0.000057   0.000048
    25  C   -0.009045  -0.008953
    26  H   -0.002659   0.013058
    27  H    0.013158  -0.002715
    28  O   -0.037349  -0.037394
    29  C    0.371235   0.371085
    30  H   -0.034200  -0.034495
    31  H    0.654950  -0.051841
    32  H   -0.051841   0.656333
 Mulliken atomic charges:
              1
     1  C   -0.408549
     2  C    0.573725
     3  O   -0.501728
     4  N   -0.450309
     5  C   -0.124627
     6  C    0.608451
     7  O   -0.521468
     8  N   -0.427193
     9  C   -0.169424
    10  C   -0.177695
    11  H    0.147170
    12  H    0.122558
    13  H    0.139146
    14  H    0.118308
    15  H    0.148266
    16  H    0.113043
    17  H    0.109028
    18  H    0.123243
    19  H    0.099460
    20  H    0.156924
    21  H    0.119785
    22  C   -0.083410
    23  H    0.128022
    24  H    0.128292
    25  C    0.096566
    26  H    0.085249
    27  H    0.083135
    28  O   -0.485557
    29  C   -0.062771
    30  H    0.121738
    31  H    0.095717
    32  H    0.094904
 Sum of Mulliken atomic charges =   0.00000
 Mulliken charges with hydrogens summed into heavy atoms:
              1
     1  C    0.000326
     2  C    0.573725
     3  O   -0.501728
     4  N   -0.450309
     5  C    0.141946
     6  C    0.608451
     7  O   -0.521468
     8  N   -0.427193
     9  C    0.175890
    10  C    0.198474
    22  C    0.172904
    25  C    0.264950
    28  O   -0.485557
    29  C    0.249588
 Sum of Mulliken charges with hydrogens summed into heavy atoms =   0.00000
 Electronic spatial extent (au):  <R**2>=           3680.3800
 Charge=              0.0000 electrons
 Dipole moment (field-independent basis, Debye):
    X=              5.0250    Y=             -1.9388    Z=             -2.9186  Tot=              6.1260
 Quadrupole moment (field-independent basis, Debye-Ang):
   XX=            -91.0378   YY=            -81.5115   ZZ=            -85.9596
   XY=              3.5195   XZ=              5.5499   YZ=              1.9308
 Traceless Quadrupole moment (field-independent basis, Debye-Ang):
   XX=             -4.8682   YY=              4.6581   ZZ=              0.2100
   XY=              3.5195   XZ=              5.5499   YZ=              1.9308
 Octapole moment (field-independent basis, Debye-Ang**2):
  XXX=             36.6136  YYY=              5.3189  ZZZ=             -2.8105  XYY=             16.8299
  XXY=            -30.9459  XXZ=            -41.1333  XZZ=             11.1471  YZZ=              1.9834
  YYZ=             -1.1324  XYZ=             -2.7160
 Hexadecapole moment (field-independent basis, Debye-Ang**3):
 XXXX=          -3057.4195 YYYY=           -948.4792 ZZZZ=           -535.0708 XXXY=            -73.8685
 XXXZ=             29.7711 YYYX=              7.5133 YYYZ=             -2.0206 ZZZX=             23.6512
 ZZZY=             -1.3269 XXYY=           -670.3603 XXZZ=           -667.2117 YYZZ=           -243.1073
 XXYZ=             24.4306 YYXZ=              1.1385 ZZXY=             -0.7701
 N-N= 9.787152451261D+02 E-N=-3.563041190154D+03  KE= 6.826146152970D+02
 Calling FoFJK, ICntrl=      2127 FMM=F ISym2X=0 I1Cent= 0 IOpClX= 0 NMat=1 NMatS=1 NMatT=0.
 ***** Axes restored to original set *****
 -------------------------------------------------------------------
 Center     Atomic                   Forces (Hartrees/Bohr)
 Number     Number              X              Y              Z
 -------------------------------------------------------------------
      1        6           0.000000666    0.000000347   -0.000000744
      2        6           0.000020266    0.000080921    0.000115221
      3        8           0.000001013   -0.000001853    0.000001889
      4        7          -0.000005965   -0.000169823   -0.000198762
      5        6          -0.000048564    0.000190651    0.000151679
      6        6           0.000042581   -0.000097081   -0.000069055
      7        8          -0.000001452    0.000004616    0.000004350
      8        7          -0.000003485    0.000004831   -0.000001667
      9        6          -0.000003009    0.000003240    0.000003183
     10        6           0.000001493    0.000009042    0.000002465
     11        1           0.000001905    0.000000511    0.000001520
     12        1           0.000001905   -0.000001077    0.000000188
     13        1           0.000004312   -0.000000604    0.000000982
     14        1           0.000001251   -0.000002646    0.000000197
     15        1           0.000000254   -0.000000908    0.000001888
     16        1          -0.000001678    0.000000509    0.000001387
     17        1          -0.000003831    0.000001686    0.000001350
     18        1          -0.000002179    0.000002682    0.000001277
     19        1          -0.000003564    0.000003361    0.000003692
     20        1          -0.000002915    0.000002858    0.000003790
     21        1          -0.000000196    0.000003373    0.000004292
     22        6           0.000005415   -0.000003049    0.000000857
     23        1           0.000001553   -0.000002615   -0.000001650
     24        1           0.000001553   -0.000001104   -0.000001944
     25        6          -0.000000179   -0.000002074   -0.000002877
     26        1          -0.000000759   -0.000002264   -0.000001424
     27        1           0.000002051   -0.000001675   -0.000001978
     28        8           0.000001248   -0.000005738   -0.000005048
     29        6          -0.000006373   -0.000000921   -0.000000614
     30        1          -0.000000873   -0.000005732   -0.000005082
     31        1          -0.000001212   -0.000005418   -0.000004752
     32        1          -0.000001234   -0.000004044   -0.000004611
 -------------------------------------------------------------------
 Cartesian Forces:  Max     0.000198762 RMS     0.000041717

 GradGradGradGradGradGradGradGradGradGradGradGradGradGradGradGradGradGrad
 Berny optimization.
 Internal  Forces:  Max     0.000115767 RMS     0.000015680
 Search for a local minimum.
 Step number   1 out of a maximum of  155 on scan point     1 out of    37
 All quantities printed in internal units (Hartrees-Bohrs-Radians)
 Mixed Optimization -- En-DIIS/RFO-DIIS
 Second derivative matrix not updated -- first step.
 ITU=  0
     Eigenvalues ---    0.00365   0.00453   0.00733   0.00856   0.00936
     Eigenvalues ---    0.01019   0.01071   0.01103   0.01438   0.01509
     Eigenvalues ---    0.01550   0.01974   0.02039   0.02360   0.04104
     Eigenvalues ---    0.05368   0.05494   0.05886   0.06199   0.06848
     Eigenvalues ---    0.07297   0.07477   0.07481   0.07585   0.07674
     Eigenvalues ---    0.09481   0.10039   0.10514   0.10986   0.11090
     Eigenvalues ---    0.11777   0.12926   0.13606   0.16000   0.16000
     Eigenvalues ---    0.16000   0.16000   0.16000   0.16000   0.16000
     Eigenvalues ---    0.16000   0.16000   0.16000   0.16000   0.16000
     Eigenvalues ---    0.21924   0.21945   0.22146   0.23575   0.23706
     Eigenvalues ---    0.24203   0.24400   0.24702   0.24996   0.25000
     Eigenvalues ---    0.25000   0.25000   0.28324   0.29393   0.30017
     Eigenvalues ---    0.33258   0.33304   0.33577   0.33579   0.33812
     Eigenvalues ---    0.33849   0.34038   0.34145   0.34180   0.34183
     Eigenvalues ---    0.34184   0.34283   0.34397   0.34574   0.34775
     Eigenvalues ---    0.34868   0.34931   0.35034   0.35470   0.36573
     Eigenvalues ---    0.37328   0.38132   0.43409   0.43885   0.49349
     Eigenvalues ---    0.50266   0.92903   0.932381000.000001000.00000
     Eigenvalues --- 1000.000001000.000001000.000001000.000001000.00000
     Eigenvalues --- 1000.000001000.000001000.000001000.000001000.00000
     Eigenvalues --- 1000.000001000.000001000.000001000.000001000.00000
     Eigenvalues --- 1000.000001000.000001000.000001000.000001000.00000
     Eigenvalues --- 1000.000001000.000001000.000001000.000001000.00000
     Eigenvalues --- 1000.000001000.000001000.000001000.000001000.00000
     Eigenvalues --- 1000.000001000.000001000.000001000.000001000.00000
     Eigenvalues --- 1000.000001000.000001000.000001000.000001000.00000
     Eigenvalues --- 1000.000001000.000001000.000001000.000001000.00000
     Eigenvalues --- 1000.000001000.000001000.000001000.000001000.00000
     Eigenvalues --- 1000.000001000.000001000.000001000.000001000.00000
 RFO step:  Lambda= 0.00000000D+00 EMin= 3.64740921D-03
 Linear search not attempted -- first point.
 Iteration  1 RMS(Cart)=  0.00021640 RMS(Int)=  0.00000001
 Iteration  2 RMS(Cart)=  0.00000002 RMS(Int)=  0.00000000
 Iteration  1 RMS(Cart)=  0.00000000 RMS(Int)=  0.00000000
 Variable       Old X    -DE/DX   Delta X   Delta X   Delta X     New X
                                 (Linear)    (Quad)   (Total)
    R1        2.87930   0.00000   0.00000   0.00000   0.00000   2.87930
    R2        2.05889   0.00000   0.00000   0.00000   0.00000   2.05889
    R3        2.06666   0.00000   0.00000   0.00000   0.00000   2.06666
    R4        2.07023   0.00000   0.00000   0.00000   0.00000   2.07023
    R5        2.31623   0.00000   0.00000   0.00000   0.00000   2.31623
    R6        2.60528   0.00000   0.00000  -0.00001  -0.00001   2.60527
    R7        2.78219   0.00000   0.00000  -0.00001  -0.00001   2.78218
    R8        2.76495   0.00000   0.00000   0.00001   0.00001   2.76496
    R9        2.91435   0.00000   0.00000  -0.00001  -0.00001   2.91434
   R10        2.07267   0.00000   0.00000   0.00001   0.00001   2.07268
   R11        2.06855   0.00000   0.00000   0.00000   0.00000   2.06856
   R12        2.31475   0.00000   0.00000   0.00000   0.00000   2.31476
   R13        2.59598   0.00000   0.00000  -0.00001  -0.00001   2.59597
   R14        2.74173   0.00000   0.00000  -0.00001  -0.00001   2.74172
   R15        2.75354   0.00000   0.00000   0.00000   0.00000   2.75354
   R16        2.05786   0.00000   0.00000   0.00000   0.00000   2.05787
   R17        2.07020   0.00000   0.00000   0.00000   0.00000   2.07020
   R18        2.07649   0.00000   0.00000   0.00000   0.00000   2.07649
   R19        2.07028   0.00000   0.00000   0.00000   0.00000   2.07028
   R20        2.05620   0.00000   0.00000   0.00000   0.00000   2.05620
   R21        2.07585   0.00000   0.00000  -0.00001  -0.00001   2.07584
   R22        2.06041   0.00000   0.00000   0.00000   0.00000   2.06041
   R23        2.07085   0.00000   0.00000   0.00000   0.00000   2.07085
   R24        2.89190   0.00000   0.00000   0.00001   0.00001   2.89191
   R25        2.08521   0.00000   0.00000   0.00000   0.00000   2.08521
   R26        2.08601   0.00000   0.00000   0.00000   0.00000   2.08600
   R27        2.66592   0.00000   0.00000   0.00000   0.00000   2.66592
   R28        2.67169   0.00000   0.00000  -0.00001  -0.00001   2.67168
   R29        2.06372   0.00000   0.00000   0.00000   0.00000   2.06372
   R30        2.08046   0.00000   0.00000   0.00000   0.00000   2.08046
   R31        2.08049   0.00000   0.00000   0.00000   0.00000   2.08049
    A1        1.86749   0.00000   0.00000   0.00000   0.00000   1.86748
    A2        1.97498   0.00000   0.00000   0.00000   0.00000   1.97498
    A3        1.93666   0.00000   0.00000   0.00000   0.00000   1.93666
    A4        1.90957   0.00000   0.00000   0.00001   0.00001   1.90958
    A5        1.89062   0.00000   0.00000   0.00000   0.00000   1.89062
    A6        1.88297   0.00000   0.00000   0.00000   0.00000   1.88296
    A7        2.10434   0.00000   0.00000   0.00000   0.00000   2.10435
    A8        2.05554   0.00000   0.00000   0.00002   0.00002   2.05556
    A9        2.12312  -0.00001   0.00000  -0.00002  -0.00002   2.12310
   A10        2.09433   0.00000   0.00000  -0.00005  -0.00005   2.09427
   A11        2.15362  -0.00002   0.00000   0.00000   0.00000   2.15362
   A12        2.00077   0.00001   0.00000   0.00003   0.00003   2.00080
   A13        2.09453   0.00000   0.00000   0.00000   0.00000   2.09453
   A14        1.87281   0.00000   0.00000   0.00001   0.00001   1.87281
   A15        1.91460   0.00001   0.00000   0.00001   0.00001   1.91461
   A16        1.88504  -0.00005   0.00000   0.00001   0.00001   1.88504
   A17        1.80944   0.00004   0.00000  -0.00002  -0.00002   1.80942
   A18        1.87767   0.00000   0.00000   0.00000   0.00000   1.87767
   A19        2.05310   0.00000   0.00000   0.00001   0.00001   2.05310
   A20        2.08265   0.00000   0.00000   0.00002   0.00002   2.08266
   A21        2.13575   0.00000   0.00000   0.00000   0.00000   2.13575
   A22        2.17302   0.00000   0.00000  -0.00001  -0.00001   2.17301
   A23        2.05243   0.00000   0.00000   0.00001   0.00001   2.05244
   A24        2.01006   0.00000   0.00000   0.00001   0.00001   2.01007
   A25        1.93966   0.00000   0.00000  -0.00001  -0.00001   1.93965
   A26        1.90572   0.00000   0.00000  -0.00001  -0.00001   1.90571
   A27        1.94962   0.00000   0.00000   0.00000   0.00000   1.94962
   A28        1.88489   0.00000   0.00000   0.00000   0.00000   1.88489
   A29        1.89140   0.00000   0.00000   0.00001   0.00001   1.89140
   A30        1.89083   0.00000   0.00000   0.00001   0.00001   1.89083
   A31        1.91533   0.00000   0.00000   0.00000   0.00000   1.91533
   A32        1.89403   0.00000   0.00000   0.00002   0.00002   1.89405
   A33        1.93712   0.00000   0.00000   0.00000   0.00000   1.93712
   A34        1.91868   0.00000   0.00000  -0.00002  -0.00002   1.91866
   A35        1.89689   0.00000   0.00000   0.00000   0.00000   1.89689
   A36        1.90180   0.00000   0.00000   0.00001   0.00001   1.90180
   A37        1.92976   0.00000   0.00000  -0.00003  -0.00003   1.92974
   A38        1.90326   0.00000   0.00000   0.00000   0.00000   1.90327
   A39        1.97383   0.00001   0.00000   0.00003   0.00003   1.97386
   A40        1.85710   0.00000   0.00000   0.00000   0.00000   1.85709
   A41        1.89850   0.00000   0.00000  -0.00002  -0.00002   1.89848
   A42        1.89751   0.00000   0.00000   0.00001   0.00001   1.89752
   A43        1.92168   0.00000   0.00000   0.00000   0.00000   1.92168
   A44        1.92860   0.00000   0.00000   0.00002   0.00002   1.92862
   A45        1.87041   0.00000   0.00000  -0.00001  -0.00001   1.87040
   A46        1.86852   0.00000   0.00000   0.00000   0.00000   1.86853
   A47        1.94057   0.00000   0.00000   0.00000   0.00000   1.94057
   A48        1.93482   0.00000   0.00000  -0.00002  -0.00002   1.93481
   A49        1.97470   0.00000   0.00000   0.00000   0.00000   1.97470
   A50        1.87118   0.00000   0.00000   0.00000   0.00000   1.87117
   A51        1.94986   0.00000   0.00000   0.00002   0.00002   1.94988
   A52        1.95037   0.00000   0.00000   0.00000   0.00000   1.95037
   A53        1.90060   0.00000   0.00000  -0.00001  -0.00001   1.90059
   A54        1.90070   0.00000   0.00000  -0.00001  -0.00001   1.90069
   A55        1.89014   0.00000   0.00000   0.00000   0.00000   1.89013
    D1       -0.19930   0.00000   0.00000   0.00003   0.00003  -0.19927
    D2        2.92241   0.00000   0.00000  -0.00004  -0.00004   2.92237
    D3       -2.30381   0.00000   0.00000   0.00003   0.00003  -2.30379
    D4        0.81790   0.00000   0.00000  -0.00005  -0.00005   0.81785
    D5        1.85987   0.00000   0.00000   0.00003   0.00003   1.85990
    D6       -1.30161   0.00000   0.00000  -0.00004  -0.00004  -1.30165
    D7        3.02036  -0.00002   0.00000  -0.00008  -0.00008   3.02027
    D8        0.17299   0.00002   0.00000   0.00004   0.00004   0.17303
    D9       -0.14134  -0.00002   0.00000  -0.00016  -0.00016  -0.14150
   D10       -2.98871   0.00002   0.00000  -0.00003  -0.00003  -2.98874
   D11        0.50038   0.00012   0.00000   0.00000   0.00000   0.50038
   D12        2.65808   0.00005   0.00000   0.00002   0.00002   2.65810
   D13       -1.59022   0.00005   0.00000   0.00002   0.00002  -1.59020
   D14       -2.91083   0.00008   0.00000  -0.00012  -0.00012  -2.91095
   D15       -0.75313   0.00001   0.00000  -0.00011  -0.00011  -0.75324
   D16        1.28175   0.00001   0.00000  -0.00010  -0.00010   1.28166
   D17        0.28154  -0.00002   0.00000  -0.00005  -0.00005   0.28149
   D18        2.31761  -0.00002   0.00000  -0.00007  -0.00007   2.31754
   D19       -1.85223  -0.00002   0.00000  -0.00003  -0.00003  -1.85226
   D20       -2.58010   0.00002   0.00000   0.00009   0.00009  -2.58002
   D21       -0.54404   0.00002   0.00000   0.00007   0.00007  -0.54397
   D22        1.56930   0.00002   0.00000   0.00011   0.00011   1.56941
   D23       -2.18360  -0.00003   0.00000   0.00017   0.00017  -2.18343
   D24        1.11779  -0.00003   0.00000   0.00000   0.00000   1.11779
   D25        1.94778   0.00002   0.00000   0.00015   0.00015   1.94793
   D26       -1.03402   0.00002   0.00000  -0.00002  -0.00002  -1.03403
   D27       -0.04106   0.00002   0.00000   0.00017   0.00017  -0.04089
   D28       -3.02285   0.00002   0.00000  -0.00001  -0.00001  -3.02286
   D29       -0.28697   0.00000   0.00000   0.00014   0.00014  -0.28683
   D30       -3.08512   0.00000   0.00000   0.00012   0.00012  -3.08500
   D31        3.02231   0.00000   0.00000  -0.00004  -0.00004   3.02227
   D32        0.22416   0.00000   0.00000  -0.00005  -0.00005   0.22410
   D33        0.51502   0.00000   0.00000  -0.00001  -0.00001   0.51501
   D34        2.59247   0.00000   0.00000  -0.00002  -0.00002   2.59245
   D35       -1.59971   0.00000   0.00000  -0.00001  -0.00001  -1.59973
   D36       -2.96258   0.00000   0.00000   0.00001   0.00001  -2.96257
   D37       -0.88513   0.00000   0.00000   0.00000   0.00000  -0.88513
   D38        1.20587   0.00000   0.00000   0.00001   0.00001   1.20587
   D39       -2.46808   0.00000   0.00000   0.00002   0.00002  -2.46806
   D40       -0.37117   0.00000   0.00000   0.00001   0.00001  -0.37116
   D41        1.71817   0.00000   0.00000   0.00002   0.00002   1.71819
   D42        0.98513   0.00000   0.00000   0.00001   0.00001   0.98513
   D43        3.08204   0.00000   0.00000  -0.00001  -0.00001   3.08204
   D44       -1.11181   0.00000   0.00000   0.00001   0.00001  -1.11180
   D45        1.07272   0.00000   0.00000  -0.00009  -0.00009   1.07263
   D46       -0.98778   0.00000   0.00000  -0.00010  -0.00010  -0.98788
   D47       -3.09764   0.00000   0.00000  -0.00009  -0.00009  -3.09773
   D48       -1.07843   0.00000   0.00000  -0.00006  -0.00006  -1.07849
   D49       -3.13893   0.00000   0.00000  -0.00008  -0.00008  -3.13901
   D50        1.03439   0.00000   0.00000  -0.00007  -0.00007   1.03433
   D51       -3.09387   0.00000   0.00000  -0.00005  -0.00005  -3.09392
   D52        1.12882   0.00000   0.00000  -0.00007  -0.00007   1.12875
   D53       -0.98105   0.00000   0.00000  -0.00006  -0.00006  -0.98111
   D54        3.13710   0.00000   0.00000   0.00002   0.00002   3.13713
   D55       -1.04524   0.00000   0.00000   0.00002   0.00002  -1.04522
   D56        1.03119   0.00000   0.00000   0.00001   0.00001   1.03120
   D57       -3.13996   0.00000   0.00000   0.00001   0.00001  -3.13996
   D58       -1.05900   0.00000   0.00000   0.00001   0.00001  -1.05899
   D59        1.06184   0.00000   0.00000   0.00002   0.00002   1.06186
         Item               Value     Threshold  Converged?
 Maximum Force            0.000011     0.000450     YES
 RMS     Force            0.000002     0.000300     YES
 Maximum Displacement     0.000772     0.001800     YES
 RMS     Displacement     0.000216     0.001200     YES
 Predicted change in Energy=-2.496180D-09
 Optimization completed.
    -- Stationary point found.
                           ----------------------------
                           !   Optimized Parameters   !
                           ! (Angstroms and Degrees)  !
 --------------------------                            --------------------------
 ! Name  Definition              Value          Derivative Info.                !
 --------------------------------------------------------------------------------
 ! R1    R(1,2)                  1.5237         -DE/DX =    0.0                 !
 ! R2    R(1,11)                 1.0895         -DE/DX =    0.0                 !
 ! R3    R(1,12)                 1.0936         -DE/DX =    0.0                 !
 ! R4    R(1,13)                 1.0955         -DE/DX =    0.0                 !
 ! R5    R(2,3)                  1.2257         -DE/DX =    0.0                 !
 ! R6    R(2,4)                  1.3787         -DE/DX =    0.0                 !
 ! R7    R(4,5)                  1.4723         -DE/DX =    0.0                 !
 ! R8    R(4,22)                 1.4631         -DE/DX =    0.0                 !
 ! R9    R(5,6)                  1.5422         -DE/DX =    0.0                 !
 ! R10   R(5,14)                 1.0968         -DE/DX =    0.0                 !
 ! R11   R(5,15)                 1.0946         -DE/DX =    0.0                 !
 ! R12   R(6,7)                  1.2249         -DE/DX =    0.0                 !
 ! R13   R(6,8)                  1.3737         -DE/DX =    0.0                 !
 ! R14   R(8,9)                  1.4509         -DE/DX =    0.0                 !
 ! R15   R(8,10)                 1.4571         -DE/DX =    0.0                 !
 ! R16   R(9,16)                 1.089          -DE/DX =    0.0                 !
 ! R17   R(9,17)                 1.0955         -DE/DX =    0.0                 !
 ! R18   R(9,18)                 1.0988         -DE/DX =    0.0                 !
 ! R19   R(10,19)                1.0955         -DE/DX =    0.0                 !
 ! R20   R(10,20)                1.0881         -DE/DX =    0.0                 !
 ! R21   R(10,21)                1.0985         -DE/DX =    0.0                 !
 ! R22   R(22,23)                1.0903         -DE/DX =    0.0                 !
 ! R23   R(22,24)                1.0958         -DE/DX =    0.0                 !
 ! R24   R(22,25)                1.5303         -DE/DX =    0.0                 !
 ! R25   R(25,26)                1.1034         -DE/DX =    0.0                 !
 ! R26   R(25,27)                1.1039         -DE/DX =    0.0                 !
 ! R27   R(25,28)                1.4107         -DE/DX =    0.0                 !
 ! R28   R(28,29)                1.4138         -DE/DX =    0.0                 !
 ! R29   R(29,30)                1.0921         -DE/DX =    0.0                 !
 ! R30   R(29,31)                1.1009         -DE/DX =    0.0                 !
 ! R31   R(29,32)                1.1009         -DE/DX =    0.0                 !
 ! A1    A(2,1,11)             106.9991         -DE/DX =    0.0                 !
 ! A2    A(2,1,12)             113.1579         -DE/DX =    0.0                 !
 ! A3    A(2,1,13)             110.9625         -DE/DX =    0.0                 !
 ! A4    A(11,1,12)            109.4105         -DE/DX =    0.0                 !
 ! A5    A(11,1,13)            108.3247         -DE/DX =    0.0                 !
 ! A6    A(12,1,13)            107.8861         -DE/DX =    0.0                 !
 ! A7    A(1,2,3)              120.57           -DE/DX =    0.0                 !
 ! A8    A(1,2,4)              117.774          -DE/DX =    0.0                 !
 ! A9    A(3,2,4)              121.6458         -DE/DX =    0.0                 !
 ! A10   A(2,4,5)              119.9961         -DE/DX =    0.0                 !
 ! A11   A(2,4,22)             123.3935         -DE/DX =    0.0                 !
 ! A12   A(5,4,22)             114.6358         -DE/DX =    0.0                 !
 ! A13   A(4,5,6)              120.0077         -DE/DX =    0.0                 !
 ! A14   A(4,5,14)             107.3039         -DE/DX =    0.0                 !
 ! A15   A(4,5,15)             109.6983         -DE/DX =    0.0                 !
 ! A16   A(6,5,14)             108.0047         -DE/DX =    0.0                 !
[...]
 ! D48   D(23,22,25,26)        -61.1354         -DE/DX =    0.0                 !
 ! D49   D(23,22,25,27)       -178.786          -DE/DX =    0.0                 !
 ! D50   D(23,22,25,28)         60.115          -DE/DX =    0.0                 !
 ! D51   D(24,22,25,26)       -176.3161         -DE/DX =    0.0                 !
 ! D52   D(24,22,25,27)         66.0333         -DE/DX =    0.0                 !
 ! D53   D(24,22,25,28)        -55.0657         -DE/DX =    0.0                 !
 ! D54   D(22,25,28,29)       -179.0069         -DE/DX =    0.0                 !
 ! D55   D(26,25,28,29)        -58.5377         -DE/DX =    0.0                 !
 ! D56   D(27,25,28,29)         60.192          -DE/DX =    0.0                 !
 ! D57   D(25,28,29,30)       -179.9046         -DE/DX =    0.0                 !
 ! D58   D(25,28,29,31)        -60.6588         -DE/DX =    0.0                 !
 ! D59   D(25,28,29,32)         60.7961         -DE/DX =    0.0                 !
 --------------------------------------------------------------------------------
 Iteration  1 RMS(Cart)=  0.04519318 RMS(Int)=  0.01102196
 Iteration  2 RMS(Cart)=  0.00093560 RMS(Int)=  0.01101245
 Iteration  3 RMS(Cart)=  0.00000486 RMS(Int)=  0.01101245
 Iteration  4 RMS(Cart)=  0.00000014 RMS(Int)=  0.01101245
 Iteration  1 RMS(Cart)=  0.02540133 RMS(Int)=  0.00671625
 Iteration  2 RMS(Cart)=  0.01525770 RMS(Int)=  0.00741294
 Iteration  3 RMS(Cart)=  0.00971375 RMS(Int)=  0.00845270
 Iteration  4 RMS(Cart)=  0.00645640 RMS(Int)=  0.00931496
 Iteration  5 RMS(Cart)=  0.00441177 RMS(Int)=  0.00996066
 Iteration  6 RMS(Cart)=  0.00306431 RMS(Int)=  0.01043056
 Iteration  7 RMS(Cart)=  0.00214830 RMS(Int)=  0.01076897
 Iteration  8 RMS(Cart)=  0.00151409 RMS(Int)=  0.01101150
 Iteration  9 RMS(Cart)=  0.00107036 RMS(Int)=  0.01118485
 Iteration 10 RMS(Cart)=  0.00075804 RMS(Int)=  0.01130853
 Iteration 11 RMS(Cart)=  0.00053744 RMS(Int)=  0.01139668
 Iteration 12 RMS(Cart)=  0.00038129 RMS(Int)=  0.01145944
 Iteration 13 RMS(Cart)=  0.00027063 RMS(Int)=  0.01150411
 Iteration 14 RMS(Cart)=  0.00019214 RMS(Int)=  0.01153588
 Iteration 15 RMS(Cart)=  0.00013644 RMS(Int)=  0.01155847
 Iteration 16 RMS(Cart)=  0.00009690 RMS(Int)=  0.01157453
 Iteration 17 RMS(Cart)=  0.00006882 RMS(Int)=  0.01158594
 Iteration 18 RMS(Cart)=  0.00004888 RMS(Int)=  0.01159405
 Iteration 19 RMS(Cart)=  0.00003472 RMS(Int)=  0.01159982
 Iteration 20 RMS(Cart)=  0.00002466 RMS(Int)=  0.01160391
 Iteration 21 RMS(Cart)=  0.00001752 RMS(Int)=  0.01160682
 Iteration 22 RMS(Cart)=  0.00001244 RMS(Int)=  0.01160889
 Iteration 23 RMS(Cart)=  0.00000884 RMS(Int)=  0.01161035
 Iteration 24 RMS(Cart)=  0.00000628 RMS(Int)=  0.01161140
 Iteration 25 RMS(Cart)=  0.00000446 RMS(Int)=  0.01161214
 Iteration 26 RMS(Cart)=  0.00000317 RMS(Int)=  0.01161267
 Iteration 27 RMS(Cart)=  0.00000225 RMS(Int)=  0.01161304
 Iteration 28 RMS(Cart)=  0.00000160 RMS(Int)=  0.01161330
 Iteration 29 RMS(Cart)=  0.00000114 RMS(Int)=  0.01161349
 Iteration 30 RMS(Cart)=  0.00000081 RMS(Int)=  0.01161363
 GradGradGradGradGradGradGradGradGradGradGradGradGradGradGradGradGradGrad

                          Input orientation:                          
 ---------------------------------------------------------------------
 Center     Atomic      Atomic             Coordinates (Angstroms)
 Number     Number       Type             X           Y           Z
 ---------------------------------------------------------------------
      1          6           0        1.289423    3.224239   -0.058088
      2          6           0        0.132306    2.230456   -0.177458
      3          8           0       -0.933349    2.593315   -0.641322
      4          7           0        0.381976    0.919104    0.213833
      5          6           0       -0.650673   -0.091651    0.516121
      6          6           0       -2.058044   -0.095045   -0.128092
      7          8           0       -2.840429    0.829499   -0.004030
      8          7           0       -2.555273   -1.371033   -0.380782
      9          6           0       -1.796771   -2.427578   -1.042592
     10          6           0       -3.998350   -1.473098   -0.576650
     11          1           0        0.944158    4.152409   -0.512046
     12          1           0        2.195383    2.891498   -0.573862
     13          1           0        1.551012    3.420773    0.987551
     14          1           0       -0.220932   -1.090248    0.447605
     15          1           0       -0.882396    0.066855    1.580789
     16          1           0       -0.725381   -2.234816   -1.003435
     17          1           0       -1.993254   -3.396353   -0.567148
     18          1           0       -2.077209   -2.506883   -2.102822
     19          1           0       -4.315391   -2.493204   -0.335972
     20          1           0       -4.499475   -0.761287    0.077896
     21          1           0       -4.289162   -1.249749   -1.612723
     22          6           0        1.692112    0.523557    0.742496
     23          1           0        2.247485    1.387996    1.104008
     24          1           0        1.554406   -0.133109    1.608744
     25          6           0        2.540037   -0.208106   -0.300168
     26          1           0        2.746868    0.459454   -1.153586
     27          1           0        1.991250   -1.078731   -0.700760
     28          8           0        3.735133   -0.613973    0.332351
     29          6           0        4.621826   -1.286890   -0.538320
     30          1           0        5.505632   -1.556746    0.044033
     31          1           0        4.172442   -2.204596   -0.949394
     32          1           0        4.930957   -0.648052   -1.380206
 ---------------------------------------------------------------------
                    Distance matrix (angstroms):
                    1          2          3          4          5
     1  C    0.000000
     2  C    1.529959   0.000000
     3  O    2.383053   1.217562   0.000000
     4  N    2.492197   1.391074   2.294417   0.000000
     5  C    3.884433   2.546820   2.937452   1.476269   0.000000
     6  C    4.714667   3.195000   2.958990   2.664415   1.547810
     7  O    4.774242   3.290883   2.674723   3.231005   2.431894
     8  N    6.000196   4.498350   4.291221   3.771701   2.463484
     9  C    6.514360   5.115377   5.110370   4.186386   3.033098
    10  C    7.091856   5.562193   5.092556   5.053192   3.782788
    11  H    1.089397   2.113044   2.443874   3.361132   4.648943
    12  H    1.094304   2.202362   3.143633   2.792713   4.264655
    13  H    1.095634   2.187882   3.083823   2.867687   4.172145
    14  H    4.599097   3.397434   3.906653   2.110840   1.089297
    15  H    4.167948   2.966854   3.365022   2.047812   1.101061
    16  H    5.895286   4.621311   4.846155   3.557414   2.628267
    17  H    7.407249   6.027507   6.083175   4.987466   3.727874
    18  H    6.954201   5.570581   5.427377   4.811640   3.837605
    19  H    8.011262   6.490001   6.115892   5.831929   4.463595
    20  H    7.029527   5.519885   4.948524   5.164374   3.931123
    21  H    7.318065   5.806995   5.193673   5.464409   4.371701
    22  C    2.845483   2.488536   3.618272   1.467105   2.432770
    23  H    2.374898   2.612638   3.823176   2.119527   3.306704
    24  H    3.757702   3.286232   4.322627   2.104167   2.461283
    25  C    3.661097   3.429113   4.475350   2.488379   3.295531
    26  H    3.311842   3.305330   4.284830   2.770168   3.825562
    27  H    4.406942   3.831480   4.694756   2.723526   3.071626
    28  O    4.567911   4.618555   5.747126   3.688907   4.420621
    29  C    5.629016   5.714695   6.776914   4.838231   5.508148
    30  H    6.375317   6.577583   7.691112   5.693024   6.345823
    31  H    6.211157   6.048824   7.013127   5.047597   5.465777
    32  H    5.477536   5.723588   6.741104   5.068547   5.921168
                    6          7          8          9         10
     6  C    0.000000
     7  O    1.217497   0.000000
     8  N    1.392564   2.250688   0.000000
     9  C    2.518985   3.574408   1.459317   0.000000
    10  C    2.421781   2.640195   1.459881   2.444398   0.000000
    11  H    5.215506   5.061908   6.540005   7.147756   7.488584
    12  H    5.216300   5.471376   6.385545   6.667051   7.577073
    13  H    5.160516   5.194487   6.457191   7.037922   7.562547
    14  H    2.167219   3.278898   2.492833   2.548020   3.932500
    15  H    2.080537   2.631952   2.951914   3.733685   4.090864
    16  H    2.668489   3.855161   2.117150   1.089296   3.387430
    17  H    3.331006   4.346566   2.110099   1.096894   2.778382
    18  H    3.117193   4.014833   2.117575   1.099556   2.662460
    19  H    3.300000   3.650487   2.087892   2.616690   1.095015
    20  H    2.539073   2.299945   2.088563   3.366991   1.089143
    21  H    2.918109   3.001665   2.130437   2.815021   1.099047
    22  C    3.899264   4.603784   4.784507   4.905919   6.173178
    23  H    4.717527   5.237036   5.734399   5.960076   7.072547
    24  H    4.008471   4.779354   4.730764   4.850212   6.115931
    25  C    4.602689   5.487599   5.226958   4.927997   6.665369
    26  H    4.944319   5.716319   5.662209   5.384415   7.040282
    27  H    4.206230   5.241365   4.567133   4.035510   6.003852
    28  O    5.834569   6.740533   6.375807   5.981772   7.833973
    29  C    6.797753   7.774949   7.179321   6.538643   8.622272
    30  H    7.705544   8.680624   8.074228   7.433989   9.524596
    31  H    6.629005   7.699339   6.802963   5.974104   8.211935
    32  H    7.121779   8.029412   7.587173   6.967282   9.003273
                   11         12         13         14         15
    11  H    0.000000
    12  H    1.777437   0.000000
    13  H    1.775487   1.770129   0.000000
    14  H    5.455623   4.768257   4.876540   0.000000
    15  H    4.940447   4.700410   4.185950   1.749436   0.000000
    16  H    6.620081   5.915614   6.413398   1.915730   3.464182
    17  H    8.100323   7.555249   7.839140   3.080417   4.223913
    18  H    7.483676   7.052325   7.606018   3.457932   4.649806
    19  H    8.476912   8.452325   8.434544   4.398509   4.691837
    20  H    7.357009   7.654329   7.411173   4.307067   4.003469
    21  H    7.601476   7.763922   7.917249   4.562991   4.851599
    22  C    3.911762   2.755580   2.910983   2.520132   2.745797
    23  H    3.457206   2.253549   2.151934   3.558882   3.430582
    24  H    4.820354   3.784556   3.607765   2.327269   2.445152
    25  C    4.648206   3.130693   3.975570   2.993374   3.914927
    26  H    4.159238   2.560284   3.844990   3.711229   4.560976
    27  H    5.338244   3.977498   4.825945   2.492514   3.843914
    28  O    5.587571   3.934511   4.634528   3.986298   4.831532
    29  C    6.565967   4.831958   5.824112   4.946011   6.051422
    30  H    7.328761   5.579106   6.426893   5.759690   6.767910
    31  H    7.143151   5.479047   6.501417   4.742901   6.092020
    32  H    6.300214   4.545544   5.795312   5.484376   6.563052
                   16         17         18         19         20
    16  H    0.000000
    17  H    1.773983   0.000000
    18  H    1.763550   1.776654   0.000000
    19  H    3.660662   2.502287   2.851562   0.000000
    20  H    4.193369   3.693345   3.697298   1.790171   0.000000
    21  H    3.747282   3.312451   2.591008   1.782403   1.772292
    22  C    4.062163   5.537398   5.611344   6.808380   6.358322
    23  H    5.138484   6.608072   6.645060   7.759421   7.154984
    24  H    4.054390   5.288587   5.709567   6.618647   6.275952
    25  C    3.907057   5.548596   5.463780   7.226331   7.071327
    26  H    4.397516   6.138396   5.742118   7.698194   7.450922
    27  H    2.967866   4.611453   4.534066   6.473603   6.544967
    28  O    4.930278   6.431574   6.580007   8.293920   8.239855
    29  C    5.450461   6.943338   6.986639   9.020532   9.157189
    30  H    6.354723   7.745385   7.937961   9.872885  10.036736
    31  H    4.898215   6.291439   6.362383   8.514864   8.851023
    32  H    5.886759   7.493925   7.286413   9.486304   9.543161
                   21         22         23         24         25
    21  H    0.000000
    22  C    6.668381   0.000000
    23  H    7.554210   1.089213   0.000000
    24  H    6.765502   1.095700   1.746103   0.000000
    25  C    7.031769   1.530182   2.145889   2.149660   0.000000
    26  H    7.255198   2.170656   2.491647   3.066523   1.103059
    27  H    6.348583   2.177108   3.067179   2.533544   1.104368
    28  O    8.281113   2.374054   2.610830   2.572155   1.411759
    29  C    8.975602   3.674430   3.935702   3.917929   2.356764
    30  H    9.938666   4.399824   4.517806   4.481881   3.275982
    31  H    8.541106   4.056766   4.563840   4.205858   2.659363
    32  H    9.242656   4.045818   4.185430   4.538731   2.660175
                   26         27         28         29         30
    26  H    0.000000
    27  H    1.772575   0.000000
    28  O    2.082528   2.079530   0.000000
    29  C    2.635098   2.643794   1.413191   0.000000
    30  H    3.620792   3.624099   2.026479   1.092278   0.000000
    31  H    3.028385   2.467182   2.089064   1.101413   1.784377
    32  H    2.459303   3.047787   2.089020   1.101111   1.784498
                   31         32
    31  H    0.000000
    32  H    1.784312   0.000000
 Stoichiometry    C9H18N2O3
 Framework group  C1[X(C9H18N2O3)]
 Deg. of freedom    90
 Full point group                 C1      NOp   1
 Largest Abelian subgroup         C1      NOp   1
 Largest concise Abelian subgroup C1      NOp   1
                         Standard orientation:                         
 ---------------------------------------------------------------------
 Center     Atomic      Atomic             Coordinates (Angstroms)
 Number     Number       Type             X           Y           Z
 ---------------------------------------------------------------------
      1          6           0        1.658317    2.882530   -0.274070
      2          6           0        0.374090    2.051780   -0.236822
      3          8           0       -0.659033    2.511729   -0.688001
      4          7           0        0.469260    0.763024    0.278093
      5          6           0       -0.669381   -0.060522    0.730466
      6          6           0       -2.099957    0.068205    0.153755
      7          8           0       -2.743521    1.099880    0.215181
      8          7           0       -2.776750   -1.145108    0.058588
      9          6           0       -2.205917   -2.356078   -0.522195
     10          6           0       -4.229531   -1.064896   -0.060764
     11          1           0        1.413830    3.800773   -0.806838
     12          1           0        2.480057    2.378723   -0.792167
     13          1           0        2.004582    3.142089    0.732481
     14          1           0       -0.381318   -1.110897    0.747755
     15          1           0       -0.815125    0.231763    1.781972
     16          1           0       -1.117957   -2.310714   -0.551408
     17          1           0       -2.501558   -3.237185    0.060406
     18          1           0       -2.556061   -2.498918   -1.554677
     19          1           0       -4.665044   -2.002815    0.299367
     20          1           0       -4.592098   -0.230040    0.537393
     21          1           0       -4.548188   -0.905665   -1.100478
     22          6           0        1.743699    0.243316    0.786135
     23          1           0        2.429545    1.053606    1.029919
     24          1           0        1.570703   -0.300178    1.721681
     25          6           0        2.423984   -0.697053   -0.211048
     26          1           0        2.667572   -0.151146   -1.138080
     27          1           0        1.741540   -1.518169   -0.493303
     28          8           0        3.589319   -1.200852    0.406402
     29          6           0        4.325866   -2.071900   -0.427794
     30          1           0        5.198415   -2.403427    0.139497
     31          1           0        3.734878   -2.954210   -0.719979
     32          1           0        4.667512   -1.567346   -1.344937
 ---------------------------------------------------------------------
 Rotational constants (GHZ):      0.8587140      0.3697078      0.2728323
 Standard basis: 6-31G(d,p) (6D, 7F)
 There are   300 symmetry adapted basis functions of A   symmetry.
 Integral buffers will be    131072 words long.
 Raffenetti 2 integral format.
 Two-electron integral symmetry is turned on.
   300 basis functions,   518 primitive gaussians,   300 cartesian basis functions
    55 alpha electrons       55 beta electrons
       nuclear repulsion energy       952.1362961428 Hartrees.
 NAtoms=   32 NActive=   32 NUniq=   32 SFac= 1.00D+00 NAtFMM=   60 NAOKFM=F Big=F
 One-electron integrals computed using PRISM.
 NBasis=   300 RedAO= T  NBF=   300
 NBsUse=   300 1.00D-06 NBFU=   300
 Initial guess read from the read-write file.
 B after Tr=     0.000000    0.000000    0.000000
         Rot=    1.000000    0.000000    0.000000    0.000000 Ang=   0.00 deg.
 Initial guess orbital symmetries:
       Occupied  (A) (A) (A) (A) (A) (A) (A) (A) (A) (A) (A) (A)
                 (A) (A) (A) (A) (A) (A) (A) (A) (A) (A) (A) (A)
                 (A) (A) (A) (A) (A) (A) (A) (A) (A) (A) (A) (A)
                 (A) (A) (A) (A) (A) (A) (A) (A) (A) (A) (A) (A)
                 (A) (A) (A) (A) (A) (A) (A)
       Virtual   (A) (A) (A) (A) (A) (A) (A) (A) (A) (A) (A) (A)
                 (A) (A) (A) (A) (A) (A) (A) (A) (A) (A) (A) (A)
                 (A) (A) (A) (A) (A) (A) (A) (A) (A) (A) (A) (A)
                 (A) (A) (A) (A) (A) (A) (A) (A) (A) (A) (A) (A)
                 (A) (A) (A) (A) (A) (A) (A) (A) (A) (A) (A) (A)
                 (A) (A) (A) (A) (A) (A) (A) (A) (A) (A) (A) (A)
                 (A) (A) (A) (A) (A) (A) (A) (A) (A) (A) (A) (A)
                 (A) (A) (A) (A) (A) (A) (A) (A) (A) (A) (A) (A)
                 (A) (A) (A) (A) (A) (A) (A) (A) (A) (A) (A) (A)
                 (A) (A) (A) (A) (A) (A) (A) (A) (A) (A) (A) (A)
                 (A) (A) (A) (A) (A) (A) (A) (A) (A) (A) (A) (A)
                 (A) (A) (A) (A) (A) (A) (A) (A) (A) (A) (A) (A)
                 (A) (A) (A) (A) (A) (A) (A) (A) (A) (A) (A) (A)
                 (A) (A) (A) (A) (A) (A) (A) (A) (A) (A) (A) (A)
                 (A) (A) (A) (A) (A) (A) (A) (A) (A) (A) (A) (A)
                 (A) (A) (A) (A) (A) (A) (A) (A) (A) (A) (A) (A)
                 (A) (A) (A) (A) (A) (A) (A) (A) (A) (A) (A) (A)
                 (A) (A) (A) (A) (A) (A) (A) (A) (A) (A) (A) (A)
                 (A) (A) (A) (A) (A) (A) (A) (A) (A) (A) (A) (A)
                 (A) (A) (A) (A) (A) (A) (A) (A) (A) (A) (A) (A)
                 (A) (A) (A) (A) (A)
 Harris functional with IExCor=  402 diagonalized for initial guess.
 ExpMin= 1.61D-01 ExpMax= 5.48D+03 ExpMxC= 8.25D+02 IAcc=1 IRadAn=         1 AccDes= 0.00D+00
 HarFok:  IExCor=  402 AccDes= 0.00D+00 IRadAn=         1 IDoV= 1
 ScaDFX=  1.000000  1.000000  1.000000  1.000000
 FoFCou: FMM=F IPFlag=           0 FMFlag=      100000 FMFlg1=           0
         NFxFlg=           0 DoJE=T BraDBF=F KetDBF=T FulRan=T
         Omega=  0.000000  0.000000  1.000000  0.000000  0.000000 ICntrl=     500 IOpCl=  0
         NMat0=    1 NMatS0=    1 NMatT0=    0 NMatD0=    1 NMtDS0=    0 NMtDT0=    0
         I1Cent=           4 NGrid=           0.
 Petite list used in FoFCou.
 Requested convergence on RMS density matrix=1.00D-08 within 128 cycles.
 Requested convergence on MAX density matrix=1.00D-06.
 Requested convergence on             energy=1.00D-06.
 No special actions if energy rises.
 Keep R1 ints in memory in canonical form, NReq=1033484943.
 Integral accuracy reduced to 1.0D-05 until final iterations.
