 Entering Gaussian System, Link 0=/data/opt/apps/g09-C01/g09
 Initial command:
 /data/opt/apps/g09-C01/l1.exe /tmp/g09-tuu61186-3073236c21e64fea8x/Gau-3073378.inp -scrdir=/tmp/g09-tuu61186-3073236c21e64fea8x/
 Entering Link 1 = /data/opt/apps/g09-C01/l1.exe PID=   3073386.
  
 Copyright (c) 1988,1990,1992,1993,1995,1998,2003,2009,2011,
            Gaussian, Inc.  All Rights Reserved.
  
 This is part of the Gaussian(R) 09 program.  It is based on
 the Gaussian(R) 03 system (copyright 2003, Gaussian, Inc.),
 the Gaussian(R) 98 system (copyright 1998, Gaussian, Inc.),
 the Gaussian(R) 94 system (copyright 1995, Gaussian, Inc.),
 the Gaussian 92(TM) system (copyright 1992, Gaussian, Inc.),
 the Gaussian 90(TM) system (copyright 1990, Gaussian, Inc.),
 the Gaussian 88(TM) system (copyright 1988, Gaussian, Inc.),
 the Gaussian 86(TM) system (copyright 1986, Carnegie Mellon
 University), and the Gaussian 82(TM) system (copyright 1983,
 Carnegie Mellon University). Gaussian is a federally registered
 trademark of Gaussian, Inc.
  
 This software contains proprietary and confidential information,
 including trade secrets, belonging to Gaussian, Inc.
  
 This software is provided under written license and may be
 used, copied, transmitted, or stored only in accord with that
 written license.
  
 The following legend is applicable only to US Government
 contracts under FAR:
  
                    RESTRICTED RIGHTS LEGEND
  
 Use, reproduction and disclosure by the US Government is
 subject to restrictions as set forth in subparagraphs (a)
 and (c) of the Commercial Computer Software - Restricted
 Rights clause in FAR 52.227-19.
  
 Gaussian, Inc.
 340 Quinnipiac St., Bldg. 40, Wallingford CT 06492
  
  
 ---------------------------------------------------------------
 Warning -- This program may not be used in any manner that
 competes with the business of Gaussian, Inc. or will provide
 assistance to any competitor of Gaussian, Inc.  The licensee
 of this program is prohibited from giving any competitor of
 Gaussian, Inc. access to this program.  By using this program,
 the user acknowledges that Gaussian, Inc. is engaged in the
 business of creating and licensing software in the field of
 computational chemistry and represents and warrants to the
 licensee that it is not a competitor of Gaussian, Inc. and that
 it will not use this program in any manner prohibited above.
 ---------------------------------------------------------------
  

 Cite this work as:
 Gaussian 09, Revision C.01,
 M. J. Frisch, G. W. Trucks, H. B. Schlegel, G. E. Scuseria, 
 M. A. Robb, J. R. Cheeseman, G. Scalmani, V. Barone, B. Mennucci, 
 G. A. Petersson, H. Nakatsuji, M. Caricato, X. Li, H. P. Hratchian, 
 A. F. Izmaylov, J. Bloino, G. Zheng, J. L. Sonnenberg, M. Hada, 
 M. Ehara, K. Toyota, R. Fukuda, J. Hasegawa, M. Ishida, T. Nakajima, 
 Y. Honda, O. Kitao, H. Nakai, T. Vreven, J. A. Montgomery, Jr., 
 J. E. Peralta, F. Ogliaro, M. Bearpark, J. J. Heyd, E. Brothers, 
 K. N. Kudin, V. N. Staroverov, T. Keith, R. Kobayashi, J. Normand, 
 K. Raghavachari, A. Rendell, J. C. Burant, S. S. Iyengar, J. Tomasi, 
 M. Cossi, N. Rega, J. M. Millam, M. Klene, J. E. Knox, J. B. Cross, 
 V. Bakken, C. Adamo, J. Jaramillo, R. Gomperts, R. E. Stratmann, 
 O. Yazyev, A. J. Austin, R. Cammi, C. Pomelli, J. W. Ochterski, 
 R. L. Martin, K. Morokuma, V. G. Zakrzewski, G. A. Voth, 
 P. Salvador, J. J. Dannenberg, S. Dapprich, A. D. Daniels, 
 O. Farkas, J. B. Foresman, J. V. Ortiz, J. Cioslowski, 
 and D. J. Fox, Gaussian, Inc., Wallingford CT, 2010.
 
 ******************************************
 Gaussian 09:  EM64L-G09RevC.01 23-Sep-2011
                24-Apr-2026 
 ******************************************
 %nprocshared=8
 Will use up to    8 processors via shared memory.
 %mem=14GB
 -----------------------------------
 # opt=modredundant b3lyp/6-31g(d,p)
 -----------------------------------
 1/14=-1,18=120,19=15,26=3,38=1/1,3;
 2/9=110,12=2,17=6,18=5,40=1/2;
 3/5=1,6=6,7=101,11=2,16=1,25=1,30=1,71=1,74=-5/1,2,3;
 4//1;
 5/5=2,38=5/2;
 6/7=2,8=2,9=2,10=2,28=1/1;
 7//1,2,3,16;
 1/14=-1,18=20,19=15/3(2);
 2/9=110/2;
 99//99;
 2/9=110/2;
 3/5=1,6=6,7=101,11=2,16=1,25=1,30=1,71=1,74=-5/1,2,3;
 4/5=5,16=3/1;
 5/5=2,38=5/2;
 7//1,2,3,16;
 1/14=-1,18=20,19=15/3(-5);
 2/9=110/2;
 6/7=2,8=2,9=2,10=2,19=2,28=1/1;
 99/9=1/99;
 ---------------
 QM dihedral opt
 ---------------
 Charge =  0 Multiplicity = 1
 Symbolic Z-Matrix:
 C                     2.36688   2.50741   0.54522 
 C                     1.00917   2.17501  -0.05699 
 O                     0.39636   3.01254  -0.71371 
 N                     0.47777   0.92556   0.21169 
 C                    -0.78829   0.61983  -0.44236 
 C                    -1.76671  -0.16652   0.44245 
 O                    -1.51257  -0.43552   1.61285 
 N                    -2.9402   -0.56024  -0.15484 
 C                    -3.38575  -0.18079  -1.48607 
 C                    -3.90676  -1.31708   0.62925 
 H                     2.59856   3.53461   0.26624 
 H                     3.16052   1.85064   0.17664 
 H                     2.34822   2.427     1.63666 
 H                    -1.21766   1.58221  -0.73113 
 H                    -0.61767   0.06097  -1.37416 
 H                    -2.64099   0.41594  -2.00752 
 H                    -3.59478  -1.07313  -2.09007 
 H                    -4.31009   0.40894  -1.42736 
 H                    -4.18519  -2.23636   0.10005 
 H                    -3.45643  -1.56546   1.58822 
 H                    -4.81728  -0.72797   0.79897 
 C                     1.29583  -0.17999   0.71622 
 H                     2.01203   0.19985   1.44596 
 H                     0.64369  -0.87103   1.24817 
 C                     2.05748  -0.92204  -0.38712 
 H                     2.71794  -0.23086  -0.93921 
 H                     1.35565  -1.35068  -1.1232 
 O                     2.80717  -1.94353   0.23728 
 C                     3.5353   -2.73346  -0.67907 
 H                     4.07078  -3.49034  -0.10142 
 H                     2.87287  -3.2384   -1.39974 
 H                     4.26634  -2.13525  -1.24559 
 
 The following ModRedundant input section has been read:
 D       2       4       5       6 F                                           
 D       4       5       6       8 S  36 10.000                                

 GradGradGradGradGradGradGradGradGradGradGradGradGradGradGradGradGradGrad
 Berny optimization.
 Initialization pass.
                           ----------------------------
                           !    Initial Parameters    !
                           ! (Angstroms and Degrees)  !
 --------------------------                            --------------------------
 ! Name  Definition              Value          Derivative Info.                !
 --------------------------------------------------------------------------------
 ! R1    R(1,2)                  1.522          estimate D2E/DX2                !
 ! R2    R(1,11)                 1.0893         estimate D2E/DX2                !
 ! R3    R(1,12)                 1.0941         estimate D2E/DX2                !
 ! R4    R(1,13)                 1.0946         estimate D2E/DX2                !
 ! R5    R(2,3)                  1.2281         estimate D2E/DX2                !
 ! R6    R(2,4)                  1.3841         estimate D2E/DX2                !
 ! R7    R(4,5)                  1.4575         estimate D2E/DX2                !
 ! R8    R(4,22)                 1.4649         estimate D2E/DX2                !
 ! R9    R(5,6)                  1.5357         estimate D2E/DX2                !
 ! R10   R(5,14)                 1.0927         estimate D2E/DX2                !
 ! R11   R(5,15)                 1.0999         estimate D2E/DX2                !
 ! R12   R(6,7)                  1.2275         estimate D2E/DX2                !
 ! R13   R(6,8)                  1.3744         estimate D2E/DX2                !
 ! R14   R(8,9)                  1.4542         estimate D2E/DX2                !
 ! R15   R(8,10)                 1.4567         estimate D2E/DX2                !
 ! R16   R(9,16)                 1.0875         estimate D2E/DX2                !
 ! R17   R(9,17)                 1.0976         estimate D2E/DX2                !
 ! R18   R(9,18)                 1.098          estimate D2E/DX2                !
 ! R19   R(10,19)                1.0967         estimate D2E/DX2                !
 ! R20   R(10,20)                1.0882         estimate D2E/DX2                !
 ! R21   R(10,21)                1.0977         estimate D2E/DX2                !
 ! R22   R(22,23)                1.0908         estimate D2E/DX2                !
 ! R23   R(22,24)                1.0889         estimate D2E/DX2                !
 ! R24   R(22,25)                1.5324         estimate D2E/DX2                !
 ! R25   R(25,26)                1.104          estimate D2E/DX2                !
 ! R26   R(25,27)                1.1037         estimate D2E/DX2                !
 ! R27   R(25,28)                1.4126         estimate D2E/DX2                !
 ! R28   R(28,29)                1.412          estimate D2E/DX2                !
 ! R29   R(29,30)                1.0924         estimate D2E/DX2                !
 ! R30   R(29,31)                1.1014         estimate D2E/DX2                !
 ! R31   R(29,32)                1.1015         estimate D2E/DX2                !
 ! A1    A(2,1,11)             107.1173         estimate D2E/DX2                !
 ! A2    A(2,1,12)             112.5002         estimate D2E/DX2                !
 ! A3    A(2,1,13)             111.3018         estimate D2E/DX2                !
 ! A4    A(11,1,12)            108.9957         estimate D2E/DX2                !
 ! A5    A(11,1,13)            109.1639         estimate D2E/DX2                !
 ! A6    A(12,1,13)            107.7094         estimate D2E/DX2                !
 ! A7    A(1,2,3)              120.5148         estimate D2E/DX2                !
 ! A8    A(1,2,4)              117.57           estimate D2E/DX2                !
 ! A9    A(3,2,4)              121.8602         estimate D2E/DX2                !
 ! A10   A(2,4,5)              115.8345         estimate D2E/DX2                !
 ! A11   A(2,4,22)             122.2577         estimate D2E/DX2                !
 ! A12   A(5,4,22)             118.7728         estimate D2E/DX2                !
 ! A13   A(4,5,6)              113.7218         estimate D2E/DX2                !
 ! A14   A(4,5,14)             105.9734         estimate D2E/DX2                !
 ! A15   A(4,5,15)             110.6112         estimate D2E/DX2                !
 ! A16   A(6,5,14)             110.6641         estimate D2E/DX2                !
 ! A17   A(6,5,15)             109.0726         estimate D2E/DX2                !
 ! A18   A(14,5,15)            106.5342         estimate D2E/DX2                !
 ! A19   A(5,6,7)              121.9815         estimate D2E/DX2                !
 ! A20   A(5,6,8)              116.1217         estimate D2E/DX2                !
 ! A21   A(7,6,8)              121.8953         estimate D2E/DX2                !
 ! A22   A(6,8,9)              125.7822         estimate D2E/DX2                !
 ! A23   A(6,8,10)             118.7821         estimate D2E/DX2                !
 ! A24   A(9,8,10)             115.1531         estimate D2E/DX2                !
 ! A25   A(8,9,16)             111.8577         estimate D2E/DX2                !
 ! A26   A(8,9,17)             110.4848         estimate D2E/DX2                !
 ! A27   A(8,9,18)             110.4339         estimate D2E/DX2                !
 ! A28   A(16,9,17)            108.2187         estimate D2E/DX2                !
 ! A29   A(16,9,18)            107.9055         estimate D2E/DX2                !
 ! A30   A(17,9,18)            107.8036         estimate D2E/DX2                !
 ! A31   A(8,10,19)            110.136          estimate D2E/DX2                !
 ! A32   A(8,10,20)            108.5641         estimate D2E/DX2                !
 ! A33   A(8,10,21)            110.7803         estimate D2E/DX2                !
 ! A34   A(19,10,20)           109.8164         estimate D2E/DX2                !
 ! A35   A(19,10,21)           108.294          estimate D2E/DX2                !
 ! A36   A(20,10,21)           109.2393         estimate D2E/DX2                !
 ! A37   A(4,22,23)            109.5288         estimate D2E/DX2                !
 ! A38   A(4,22,24)            108.2245         estimate D2E/DX2                !
 ! A39   A(4,22,25)            113.2681         estimate D2E/DX2                !
 ! A40   A(23,22,24)           106.7023         estimate D2E/DX2                !
 ! A41   A(23,22,25)           108.904          estimate D2E/DX2                !
 ! A42   A(24,22,25)           110.0046         estimate D2E/DX2                !
 ! A43   A(22,25,26)           110.7485         estimate D2E/DX2                !
 ! A44   A(22,25,27)           110.6229         estimate D2E/DX2                !
 ! A45   A(22,25,28)           107.1999         estimate D2E/DX2                !
 ! A46   A(26,25,27)           106.8617         estimate D2E/DX2                !
 ! A47   A(26,25,28)           110.8726         estimate D2E/DX2                !
 ! A48   A(27,25,28)           110.5751         estimate D2E/DX2                !
 ! A49   A(25,28,29)           113.0393         estimate D2E/DX2                !
 ! A50   A(28,29,30)           107.2908         estimate D2E/DX2                !
 ! A51   A(28,29,31)           111.7741         estimate D2E/DX2                !
 ! A52   A(28,29,32)           111.8509         estimate D2E/DX2                !
 ! A53   A(30,29,31)           108.8553         estimate D2E/DX2                !
 ! A54   A(30,29,32)           108.8408         estimate D2E/DX2                !
 ! A55   A(31,29,32)           108.1563         estimate D2E/DX2                !
 ! D1    D(11,1,2,3)            -0.1597         estimate D2E/DX2                !
 ! D2    D(11,1,2,4)          -177.5107         estimate D2E/DX2                !
 ! D3    D(12,1,2,3)          -119.9094         estimate D2E/DX2                !
 ! D4    D(12,1,2,4)            62.7396         estimate D2E/DX2                !
 ! D5    D(13,1,2,3)           119.0994         estimate D2E/DX2                !
 ! D6    D(13,1,2,4)           -58.2517         estimate D2E/DX2                !
 ! D7    D(1,2,4,5)           -176.7784         estimate D2E/DX2                !
 ! D8    D(1,2,4,22)           -17.0656         estimate D2E/DX2                !
 ! D9    D(3,2,4,5)              5.9085         estimate D2E/DX2                !
 ! D10   D(3,2,4,22)           165.6213         estimate D2E/DX2                !
 ! D11   D(2,4,5,6)           -141.33           Frozen                          !
 ! D12   D(2,4,5,14)           -19.546          estimate D2E/DX2                !
 ! D13   D(2,4,5,15)            95.5361         estimate D2E/DX2                !
 ! D14   D(22,4,5,6)            58.2129         estimate D2E/DX2                !
 ! D15   D(22,4,5,14)          179.9968         estimate D2E/DX2                !
 ! D16   D(22,4,5,15)          -64.921          estimate D2E/DX2                !
 ! D17   D(2,4,22,23)           39.4989         estimate D2E/DX2                !
 ! D18   D(2,4,22,24)          155.4643         estimate D2E/DX2                !
 ! D19   D(2,4,22,25)          -82.2846         estimate D2E/DX2                !
 ! D20   D(5,4,22,23)         -161.3577         estimate D2E/DX2                !
 ! D21   D(5,4,22,24)          -45.3923         estimate D2E/DX2                !
 ! D22   D(5,4,22,25)           76.8588         estimate D2E/DX2                !
 ! D23   D(4,5,6,7)              3.8201         estimate D2E/DX2                !
 ! D24   D(4,5,6,8)           -175.7363         Scan                            !
 ! D25   D(14,5,6,7)          -115.3225         estimate D2E/DX2                !
 ! D26   D(14,5,6,8)            65.1211         estimate D2E/DX2                !
 ! D27   D(15,5,6,7)           127.7912         estimate D2E/DX2                !
 ! D28   D(15,5,6,8)           -51.7652         estimate D2E/DX2                !
 ! D29   D(5,6,8,9)             -6.7982         estimate D2E/DX2                !
 ! D30   D(5,6,8,10)           179.622          estimate D2E/DX2                !
 ! D31   D(7,6,8,9)            173.645          estimate D2E/DX2                !
 ! D32   D(7,6,8,10)             0.0652         estimate D2E/DX2                !
 ! D33   D(6,8,9,16)             3.8344         estimate D2E/DX2                !
 ! D34   D(6,8,9,17)           124.4622         estimate D2E/DX2                !
 ! D35   D(6,8,9,18)          -116.3615         estimate D2E/DX2                !
 ! D36   D(10,8,9,16)          177.6187         estimate D2E/DX2                !
 ! D37   D(10,8,9,17)          -61.7535         estimate D2E/DX2                !
 ! D38   D(10,8,9,18)           57.4228         estimate D2E/DX2                !
 ! D39   D(6,8,10,19)         -127.4963         estimate D2E/DX2                !
 ! D40   D(6,8,10,20)           -7.229          estimate D2E/DX2                !
 ! D41   D(6,8,10,21)          112.7199         estimate D2E/DX2                !
 ! D42   D(9,8,10,19)           58.2553         estimate D2E/DX2                !
 ! D43   D(9,8,10,20)          178.5227         estimate D2E/DX2                !
 ! D44   D(9,8,10,21)          -61.5284         estimate D2E/DX2                !
 ! D45   D(4,22,25,26)          58.3652         estimate D2E/DX2                !
 ! D46   D(4,22,25,27)         -59.9281         estimate D2E/DX2                !
 ! D47   D(4,22,25,28)         179.4367         estimate D2E/DX2                !
 ! D48   D(23,22,25,26)        -63.7674         estimate D2E/DX2                !
 ! D49   D(23,22,25,27)        177.9393         estimate D2E/DX2                !
 ! D50   D(23,22,25,28)         57.3041         estimate D2E/DX2                !
 ! D51   D(24,22,25,26)        179.6195         estimate D2E/DX2                !
 ! D52   D(24,22,25,27)         61.3262         estimate D2E/DX2                !
 ! D53   D(24,22,25,28)        -59.309          estimate D2E/DX2                !
 ! D54   D(22,25,28,29)        178.4168         estimate D2E/DX2                !
 ! D55   D(26,25,28,29)        -60.5901         estimate D2E/DX2                !
 ! D56   D(27,25,28,29)         57.7513         estimate D2E/DX2                !
 ! D57   D(25,28,29,30)       -179.6661         estimate D2E/DX2                !
 ! D58   D(25,28,29,31)        -60.4029         estimate D2E/DX2                !
 ! D59   D(25,28,29,32)         61.0437         estimate D2E/DX2                !
 --------------------------------------------------------------------------------
 Trust Radius=3.00D-01 FncErr=1.00D-07 GrdErr=1.00D-06
 Number of optimizations in scan=  37
 Number of steps in this run=    155 maximum allowed number of steps=    192.
 GradGradGradGradGradGradGradGradGradGradGradGradGradGradGradGradGradGrad

                          Input orientation:                          
 ---------------------------------------------------------------------
 Center     Atomic      Atomic             Coordinates (Angstroms)
 Number     Number       Type             X           Y           Z
 ---------------------------------------------------------------------
      1          6           0        2.366883    2.507409    0.545219
      2          6           0        1.009169    2.175009   -0.056990
      3          8           0        0.396355    3.012537   -0.713711
      4          7           0        0.477774    0.925564    0.211687
      5          6           0       -0.788289    0.619826   -0.442357
      6          6           0       -1.766705   -0.166518    0.442450
      7          8           0       -1.512570   -0.435524    1.612845
      8          7           0       -2.940200   -0.560244   -0.154841
      9          6           0       -3.385753   -0.180787   -1.486070
     10          6           0       -3.906758   -1.317083    0.629250
     11          1           0        2.598560    3.534605    0.266243
     12          1           0        3.160517    1.850644    0.176644
     13          1           0        2.348216    2.426998    1.636658
     14          1           0       -1.217659    1.582207   -0.731132
     15          1           0       -0.617673    0.060966   -1.374158
     16          1           0       -2.640994    0.415937   -2.007522
     17          1           0       -3.594775   -1.073131   -2.090074
     18          1           0       -4.310087    0.408941   -1.427356
     19          1           0       -4.185192   -2.236358    0.100045
     20          1           0       -3.456434   -1.565458    1.588218
     21          1           0       -4.817282   -0.727965    0.798974
     22          6           0        1.295826   -0.179988    0.716223
     23          1           0        2.012029    0.199851    1.445963
     24          1           0        0.643691   -0.871030    1.248171
     25          6           0        2.057477   -0.922035   -0.387118
     26          1           0        2.717940   -0.230862   -0.939205
     27          1           0        1.355651   -1.350683   -1.123199
     28          8           0        2.807167   -1.943531    0.237281
     29          6           0        3.535295   -2.733461   -0.679066
     30          1           0        4.070781   -3.490344   -0.101417
     31          1           0        2.872865   -3.238398   -1.399744
     32          1           0        4.266338   -2.135245   -1.245592
 ---------------------------------------------------------------------
                    Distance matrix (angstroms):
                    1          2          3          4          5
     1  C    0.000000
     2  C    1.522016   0.000000
     3  O    2.392288   1.228119   0.000000
     4  N    2.486405   1.384081   2.284392   0.000000
     5  C    3.807018   2.407895   2.683669   1.457451   0.000000
     6  C    4.924124   3.665742   4.015212   2.506707   1.535747
     7  O    4.985061   3.995297   4.576678   2.788776   2.421198
     8  N    6.169741   4.805070   4.920335   3.744932   2.471022
     9  C    6.666735   5.187233   5.009810   4.362709   2.911552
    10  C    7.347950   6.068935   6.250275   4.942463   3.824239
    11  H    1.089327   2.116399   2.466287   3.362708   4.524245
    12  H    1.094094   2.188172   3.127830   2.837977   4.182242
    13  H    1.094556   2.173704   3.110764   2.789874   4.174427
    14  H    3.915867   2.400967   2.156661   2.048068   1.092670
    15  H    4.310066   2.975017   3.190018   2.112448   1.099858
    16  H    5.997464   4.496954   4.200210   3.861518   2.433892
    17  H    7.436827   5.990004   5.875047   5.087096   3.668438
    18  H    7.271626   5.769869   5.425735   5.086942   3.663026
    19  H    8.101308   6.816612   7.014533   5.635021   4.471123
    20  H    7.182417   6.053050   6.410998   4.855720   4.002212
    21  H    7.883163   6.565627   6.592540   5.578233   4.426085
    22  C    2.898018   2.495204   3.611921   1.464927   2.515064
    23  H    2.502416   2.676910   3.896896   2.098579   3.403515
    24  H    3.857121   3.333973   4.358010   2.080764   2.670413
    25  C    3.567362   3.286277   4.283322   2.503528   3.237093
    26  H    3.134467   3.080003   3.995027   2.771320   3.642001
    27  H    4.323318   3.699643   4.486158   2.780987   2.990473
    28  O    4.483251   4.503528   5.592764   3.695732   4.467663
    29  C    5.507339   5.555301   6.547567   4.850808   5.476673
    30  H    6.268528   6.439850   7.494249   5.701577   6.373406
    31  H    6.087134   5.880589   6.758545   5.066730   5.404307
    32  H    5.326272   5.531746   6.462146   5.083840   5.812474
                    6          7          8          9         10
     6  C    0.000000
     7  O    1.227507   0.000000
     8  N    1.374361   2.275609   0.000000
     9  C    2.518077   3.630011   1.454192   0.000000
    10  C    2.436908   2.734363   1.456653   2.457070   0.000000
    11  H    5.725810   5.871682   6.900939   7.258563   8.123411
    12  H    5.330770   5.396942   6.568182   7.053012   7.757946
    13  H    5.008496   4.806274   6.332490   7.030674   7.359192
    14  H    2.176416   3.106837   2.808800   2.894600   4.181839
    15  H    2.161501   3.157456   2.695694   2.780870   4.090323
    16  H    2.665708   3.886565   2.115391   1.087501   3.399718
    17  H    3.252301   4.295780   2.106335   1.097629   2.748012
    18  H    3.208757   4.216876   2.105992   1.098007   2.715044
    19  H    3.201649   3.560123   2.103409   2.716659   1.096654
    20  H    2.474874   2.248547   2.077308   3.372470   1.088164
    21  H    3.122235   3.415996   2.112186   2.751382   1.097689
    22  C    3.074773   2.959108   4.341344   5.173710   5.326108
    23  H    3.926843   3.585296   5.259742   6.154491   6.164426
    24  H    2.637334   2.229824   3.861257   4.918224   4.613958
    25  C    3.985393   4.120896   5.016136   5.602312   6.063099
    26  H    4.693096   4.944902   5.721736   6.128347   6.893950
    27  H    3.688172   4.068187   4.474019   4.897065   5.546635
    28  O    4.911229   4.777697   5.924481   6.665543   6.754470
    29  C    5.996516   6.001193   6.850527   7.420802   7.687781
    30  H    6.739425   6.591239   7.598829   8.274680   8.300486
    31  H    5.861377   6.013637   6.520277   6.966113   7.332909
    32  H    6.566809   6.667495   7.456846   7.901407   8.425196
                   11         12         13         14         15
    11  H    0.000000
    12  H    1.777512   0.000000
    13  H    1.779748   1.767387   0.000000
    14  H    4.401152   4.479346   4.362977   0.000000
    15  H    5.010114   4.458997   4.843513   1.757168   0.000000
    16  H    6.507613   6.362900   6.497433   2.239473   2.149647
    17  H    8.070989   7.701976   7.839552   3.814213   3.265249
    18  H    7.769650   7.775683   7.602219   3.379999   3.709156
    19  H    8.907914   8.406479   8.172728   4.906990   4.492011
    20  H    8.026283   7.579336   7.045283   4.505474   4.413558
    21  H    8.570182   8.407247   7.873999   4.542621   4.793916
    22  C    3.962045   2.809214   2.958226   3.393785   2.844157
    23  H    3.585574   2.378090   2.260436   4.132981   3.858459
    24  H    4.918873   3.858768   3.732736   3.660688   3.055530
    25  C    4.536661   3.036820   3.923802   4.137160   3.016118
    26  H    3.955515   2.402844   3.719675   4.338139   3.376487
    27  H    5.228901   3.898157   4.782559   3.921414   2.439209
    28  O    5.482183   3.811076   4.611986   5.437635   4.283021
    29  C    6.407787   4.678324   5.779453   6.420146   5.053624
    30  H    7.186969   5.425131   6.403364   7.354924   6.017747
    31  H    6.980281   5.335362   6.449163   6.357489   4.803157
    32  H    6.100355   4.374118   5.727182   6.645174   5.356625
                   16         17         18         19         20
    16  H    0.000000
    17  H    1.770265   0.000000
    18  H    1.767063   1.774092   0.000000
    19  H    3.723044   2.549178   3.057149   0.000000
    20  H    4.185716   3.713672   3.704141   1.787695   0.000000
    21  H    3.731107   3.155988   2.550754   1.778564   1.782192
    22  C    4.824154   5.708851   6.030591   5.886416   5.026318
    23  H    5.798610   6.749836   6.947577   6.793538   5.748099
    24  H    4.800518   5.399011   5.773793   5.147856   4.172396
    25  C    5.146990   5.905154   6.587827   6.398100   5.892297
    26  H    5.502529   6.471807   7.073952   7.263283   6.803816
    27  H    4.458267   5.051594   5.940486   5.742969   5.527574
    28  O    6.347337   6.867244   7.678571   6.999833   6.418775
    29  C    7.059040   7.455571   8.484377   7.775606   7.442384
    30  H    7.996261   8.280001   9.338174   8.353093   7.951039
    31  H    6.642755   6.855312   8.055969   7.284890   7.196296
    32  H    7.402723   7.977364   8.947681   8.558582   8.245990
                   21         22         23         24         25
    21  H    0.000000
    22  C    6.138177   0.000000
    23  H    6.922350   1.090754   0.000000
    24  H    5.481284   1.088939   1.748787   0.000000
    25  C    6.979025   1.532354   2.149623   2.162305   0.000000
    26  H    7.749061   2.182988   2.524451   3.081710   1.103962
    27  H    6.495200   2.181188   3.071739   2.521973   1.103682
    28  O    7.741145   2.371418   2.585970   2.617783   1.412573
    29  C    8.716201   3.671822   3.929428   3.942622   2.355938
    30  H    9.350888   4.396290   4.500043   4.519639   3.275855
    31  H    8.383018   4.039584   4.545398   4.193459   2.656277
    32  H    9.416626   4.061489   4.216521   4.576097   2.662315
                   26         27         28         29         30
    26  H    0.000000
    27  H    1.773044   0.000000
    28  O    2.079739   2.075879   0.000000
    29  C    2.645514   2.619194   1.412038   0.000000
    30  H    3.627160   3.604736   2.025850   1.092381   0.000000
    31  H    3.046534   2.437598   2.088264   1.101432   1.784414
    32  H    2.473476   3.017054   2.089222   1.101471   1.784285
                   31         32
    31  H    0.000000
    32  H    1.783950   0.000000
 Stoichiometry    C9H18N2O3
 Framework group  C1[X(C9H18N2O3)]
 Deg. of freedom    90
 Full point group                 C1      NOp   1
 Largest Abelian subgroup         C1      NOp   1
 Largest concise Abelian subgroup C1      NOp   1
                         Standard orientation:                         
 ---------------------------------------------------------------------
 Center     Atomic      Atomic             Coordinates (Angstroms)
 Number     Number       Type             X           Y           Z
 ---------------------------------------------------------------------
      1          6           0       -2.366883    2.507409   -0.545219
      2          6           0       -1.009169    2.175009    0.056990
      3          8           0       -0.396355    3.012537    0.713711
      4          7           0       -0.477774    0.925564   -0.211687
      5          6           0        0.788289    0.619826    0.442357
      6          6           0        1.766705   -0.166518   -0.442450
      7          8           0        1.512570   -0.435524   -1.612845
      8          7           0        2.940200   -0.560244    0.154841
      9          6           0        3.385753   -0.180787    1.486070
     10          6           0        3.906758   -1.317083   -0.629250
     11          1           0       -2.598560    3.534605   -0.266243
     12          1           0       -3.160517    1.850644   -0.176644
     13          1           0       -2.348216    2.426998   -1.636658
     14          1           0        1.217659    1.582207    0.731132
     15          1           0        0.617673    0.060966    1.374158
     16          1           0        2.640994    0.415937    2.007522
     17          1           0        3.594775   -1.073131    2.090074
     18          1           0        4.310087    0.408941    1.427356
     19          1           0        4.185192   -2.236358   -0.100045
     20          1           0        3.456434   -1.565458   -1.588218
     21          1           0        4.817282   -0.727965   -0.798974
     22          6           0       -1.295826   -0.179988   -0.716223
     23          1           0       -2.012029    0.199851   -1.445963
     24          1           0       -0.643691   -0.871030   -1.248171
     25          6           0       -2.057477   -0.922035    0.387118
     26          1           0       -2.717940   -0.230862    0.939205
     27          1           0       -1.355651   -1.350683    1.123199
     28          8           0       -2.807167   -1.943531   -0.237281
     29          6           0       -3.535295   -2.733461    0.679066
     30          1           0       -4.070781   -3.490344    0.101417
     31          1           0       -2.872865   -3.238398    1.399744
     32          1           0       -4.266338   -2.135245    1.245592
 ---------------------------------------------------------------------
 Rotational constants (GHZ):      0.7427237      0.4006631      0.3014299
 Standard basis: 6-31G(d,p) (6D, 7F)
 There are   300 symmetry adapted basis functions of A   symmetry.
 Integral buffers will be    131072 words long.
 Raffenetti 2 integral format.
 Two-electron integral symmetry is turned on.
   300 basis functions,   518 primitive gaussians,   300 cartesian basis functions
    55 alpha electrons       55 beta electrons
       nuclear repulsion energy       958.7011837335 Hartrees.
 NAtoms=   32 NActive=   32 NUniq=   32 SFac= 1.00D+00 NAtFMM=   60 NAOKFM=F Big=F
 One-electron integrals computed using PRISM.
 NBasis=   300 RedAO= T  NBF=   300
 NBsUse=   300 1.00D-06 NBFU=   300
 Harris functional with IExCor=  402 diagonalized for initial guess.
 ExpMin= 1.61D-01 ExpMax= 5.48D+03 ExpMxC= 8.25D+02 IAcc=1 IRadAn=         1 AccDes= 0.00D+00
 HarFok:  IExCor=  402 AccDes= 0.00D+00 IRadAn=         1 IDoV= 1
 ScaDFX=  1.000000  1.000000  1.000000  1.000000
 FoFCou: FMM=F IPFlag=           0 FMFlag=      100000 FMFlg1=           0
         NFxFlg=           0 DoJE=T BraDBF=F KetDBF=T FulRan=T
         Omega=  0.000000  0.000000  1.000000  0.000000  0.000000 ICntrl=     500 IOpCl=  0
         NMat0=    1 NMatS0=    1 NMatT0=    0 NMatD0=    1 NMtDS0=    0 NMtDT0=    0
         I1Cent=           4 NGrid=           0.
 Petite list used in FoFCou.
 Initial guess orbital symmetries:
       Occupied  (A) (A) (A) (A) (A) (A) (A) (A) (A) (A) (A) (A)
                 (A) (A) (A) (A) (A) (A) (A) (A) (A) (A) (A) (A)
                 (A) (A) (A) (A) (A) (A) (A) (A) (A) (A) (A) (A)
                 (A) (A) (A) (A) (A) (A) (A) (A) (A) (A) (A) (A)
                 (A) (A) (A) (A) (A) (A) (A)
       Virtual   (A) (A) (A) (A) (A) (A) (A) (A) (A) (A) (A) (A)
                 (A) (A) (A) (A) (A) (A) (A) (A) (A) (A) (A) (A)
                 (A) (A) (A) (A) (A) (A) (A) (A) (A) (A) (A) (A)
                 (A) (A) (A) (A) (A) (A) (A) (A) (A) (A) (A) (A)
                 (A) (A) (A) (A) (A) (A) (A) (A) (A) (A) (A) (A)
                 (A) (A) (A) (A) (A) (A) (A) (A) (A) (A) (A) (A)
                 (A) (A) (A) (A) (A) (A) (A) (A) (A) (A) (A) (A)
                 (A) (A) (A) (A) (A) (A) (A) (A) (A) (A) (A) (A)
                 (A) (A) (A) (A) (A) (A) (A) (A) (A) (A) (A) (A)
                 (A) (A) (A) (A) (A) (A) (A) (A) (A) (A) (A) (A)
                 (A) (A) (A) (A) (A) (A) (A) (A) (A) (A) (A) (A)
                 (A) (A) (A) (A) (A) (A) (A) (A) (A) (A) (A) (A)
                 (A) (A) (A) (A) (A) (A) (A) (A) (A) (A) (A) (A)
                 (A) (A) (A) (A) (A) (A) (A) (A) (A) (A) (A) (A)
                 (A) (A) (A) (A) (A) (A) (A) (A) (A) (A) (A) (A)
                 (A) (A) (A) (A) (A) (A) (A) (A) (A) (A) (A) (A)
                 (A) (A) (A) (A) (A) (A) (A) (A) (A) (A) (A) (A)
                 (A) (A) (A) (A) (A) (A) (A) (A) (A) (A) (A) (A)
                 (A) (A) (A) (A) (A) (A) (A) (A) (A) (A) (A) (A)
                 (A) (A) (A) (A) (A) (A) (A) (A) (A) (A) (A) (A)
                 (A) (A) (A) (A) (A)
 The electronic state of the initial guess is 1-A.
 Requested convergence on RMS density matrix=1.00D-08 within 128 cycles.
 Requested convergence on MAX density matrix=1.00D-06.
 Requested convergence on             energy=1.00D-06.
 No special actions if energy rises.
 Keep R1 ints in memory in canonical form, NReq=1033484936.
 Integral accuracy reduced to 1.0D-05 until final iterations.
 Initial convergence to 1.0D-05 achieved.  Increase integral accuracy.
 SCF Done:  E(RB3LYP) =  -688.994363117     A.U. after   14 cycles
             Convg  =    0.6447D-08             -V/T =  2.0093

 **********************************************************************

            Population analysis using the SCF density.

 **********************************************************************

 Orbital symmetries:
       Occupied  (A) (A) (A) (A) (A) (A) (A) (A) (A) (A) (A) (A)
                 (A) (A) (A) (A) (A) (A) (A) (A) (A) (A) (A) (A)
                 (A) (A) (A) (A) (A) (A) (A) (A) (A) (A) (A) (A)
                 (A) (A) (A) (A) (A) (A) (A) (A) (A) (A) (A) (A)
                 (A) (A) (A) (A) (A) (A) (A)
       Virtual   (A) (A) (A) (A) (A) (A) (A) (A) (A) (A) (A) (A)
                 (A) (A) (A) (A) (A) (A) (A) (A) (A) (A) (A) (A)
                 (A) (A) (A) (A) (A) (A) (A) (A) (A) (A) (A) (A)
                 (A) (A) (A) (A) (A) (A) (A) (A) (A) (A) (A) (A)
                 (A) (A) (A) (A) (A) (A) (A) (A) (A) (A) (A) (A)
                 (A) (A) (A) (A) (A) (A) (A) (A) (A) (A) (A) (A)
                 (A) (A) (A) (A) (A) (A) (A) (A) (A) (A) (A) (A)
                 (A) (A) (A) (A) (A) (A) (A) (A) (A) (A) (A) (A)
                 (A) (A) (A) (A) (A) (A) (A) (A) (A) (A) (A) (A)
                 (A) (A) (A) (A) (A) (A) (A) (A) (A) (A) (A) (A)
                 (A) (A) (A) (A) (A) (A) (A) (A) (A) (A) (A) (A)
                 (A) (A) (A) (A) (A) (A) (A) (A) (A) (A) (A) (A)
                 (A) (A) (A) (A) (A) (A) (A) (A) (A) (A) (A) (A)
                 (A) (A) (A) (A) (A) (A) (A) (A) (A) (A) (A) (A)
                 (A) (A) (A) (A) (A) (A) (A) (A) (A) (A) (A) (A)
                 (A) (A) (A) (A) (A) (A) (A) (A) (A) (A) (A) (A)
                 (A) (A) (A) (A) (A) (A) (A) (A) (A) (A) (A) (A)
                 (A) (A) (A) (A) (A) (A) (A) (A) (A) (A) (A) (A)
                 (A) (A) (A) (A) (A) (A) (A) (A) (A) (A) (A) (A)
                 (A) (A) (A) (A) (A) (A) (A) (A) (A) (A) (A) (A)
                 (A) (A) (A) (A) (A)
 The electronic state is 1-A.
 Alpha  occ. eigenvalues --  -19.15386 -19.11269 -19.10720 -14.37006 -14.36179
 Alpha  occ. eigenvalues --  -10.28946 -10.28254 -10.23688 -10.23209 -10.23197
 Alpha  occ. eigenvalues --  -10.22691 -10.21546 -10.21383 -10.18696  -1.03814
 Alpha  occ. eigenvalues --   -1.03560  -1.02570  -0.93633  -0.92784  -0.77109
 Alpha  occ. eigenvalues --   -0.75168  -0.73110  -0.71830  -0.68432  -0.66739
 Alpha  occ. eigenvalues --   -0.62276  -0.56211  -0.53361  -0.51226  -0.50166
 Alpha  occ. eigenvalues --   -0.49382  -0.48201  -0.47419  -0.46879  -0.46229
 Alpha  occ. eigenvalues --   -0.45248  -0.43341  -0.42756  -0.41518  -0.41010
 Alpha  occ. eigenvalues --   -0.40916  -0.40787  -0.39005  -0.38743  -0.38537
 Alpha  occ. eigenvalues --   -0.37639  -0.36083  -0.35165  -0.34630  -0.32445
 Alpha  occ. eigenvalues --   -0.26097  -0.25687  -0.24554  -0.24402  -0.23248
 Alpha virt. eigenvalues --    0.02320   0.02777   0.07366   0.08477   0.09359
 Alpha virt. eigenvalues --    0.10687   0.11756   0.13181   0.13643   0.14479
 Alpha virt. eigenvalues --    0.14605   0.15314   0.15728   0.16205   0.16441
 Alpha virt. eigenvalues --    0.16910   0.17410   0.18554   0.18993   0.19468
 Alpha virt. eigenvalues --    0.20309   0.21318   0.21823   0.22591   0.22765
 Alpha virt. eigenvalues --    0.23543   0.26020   0.27977   0.29310   0.33624
 Alpha virt. eigenvalues --    0.34902   0.38193   0.40401   0.47958   0.49200
 Alpha virt. eigenvalues --    0.49901   0.50375   0.51501   0.51692   0.52868
 Alpha virt. eigenvalues --    0.54011   0.55203   0.55827   0.56049   0.57167
 Alpha virt. eigenvalues --    0.59769   0.60018   0.61663   0.64335   0.65642
 Alpha virt. eigenvalues --    0.66248   0.67819   0.68327   0.68606   0.71117
 Alpha virt. eigenvalues --    0.73061   0.74009   0.75123   0.75524   0.76838
 Alpha virt. eigenvalues --    0.78096   0.79617   0.80168   0.81703   0.82399
 Alpha virt. eigenvalues --    0.83373   0.84022   0.85037   0.85719   0.85788
 Alpha virt. eigenvalues --    0.86771   0.87236   0.88052   0.89580   0.90335
 Alpha virt. eigenvalues --    0.90978   0.91821   0.92579   0.93460   0.94500
 Alpha virt. eigenvalues --    0.96177   0.96668   0.98104   0.98763   1.01459
 Alpha virt. eigenvalues --    1.02418   1.03676   1.05556   1.07002   1.11194
 Alpha virt. eigenvalues --    1.12690   1.15712   1.17994   1.18620   1.22416
 Alpha virt. eigenvalues --    1.26935   1.28006   1.29950   1.30403   1.31863
 Alpha virt. eigenvalues --    1.33791   1.35788   1.37175   1.38169   1.39202
 Alpha virt. eigenvalues --    1.40369   1.44179   1.48291   1.49377   1.51255
 Alpha virt. eigenvalues --    1.58444   1.59905   1.60947   1.62555   1.64907
 Alpha virt. eigenvalues --    1.69217   1.70421   1.71014   1.71810   1.72779
 Alpha virt. eigenvalues --    1.75119   1.76412   1.78035   1.79682   1.81193
 Alpha virt. eigenvalues --    1.83923   1.84446   1.86465   1.87201   1.88530
 Alpha virt. eigenvalues --    1.88565   1.90057   1.90864   1.91490   1.93327
 Alpha virt. eigenvalues --    1.95649   1.97369   1.97826   1.98544   2.00101
 Alpha virt. eigenvalues --    2.00699   2.01632   2.01833   2.02696   2.02793
 Alpha virt. eigenvalues --    2.03148   2.03233   2.03929   2.05493   2.06589
 Alpha virt. eigenvalues --    2.07591   2.08432   2.09952   2.10852   2.11085
 Alpha virt. eigenvalues --    2.12799   2.14793   2.15378   2.15666   2.19396
 Alpha virt. eigenvalues --    2.21783   2.24846   2.25718   2.27108   2.29388
 Alpha virt. eigenvalues --    2.31394   2.32937   2.35456   2.38027   2.40221
 Alpha virt. eigenvalues --    2.41920   2.43055   2.46164   2.49357   2.51102
 Alpha virt. eigenvalues --    2.51433   2.52608   2.53699   2.56079   2.57493
 Alpha virt. eigenvalues --    2.58083   2.60060   2.60883   2.63291   2.64621
 Alpha virt. eigenvalues --    2.66086   2.67504   2.68365   2.69265   2.70663
 Alpha virt. eigenvalues --    2.71501   2.72023   2.76034   2.77941   2.79452
 Alpha virt. eigenvalues --    2.81349   2.82679   2.83480   2.84825   2.86217
 Alpha virt. eigenvalues --    2.87936   2.89111   2.89383   2.90372   2.93345
 Alpha virt. eigenvalues --    2.95392   2.97889   2.98403   3.04948   3.05556
 Alpha virt. eigenvalues --    3.11811   3.14392   3.15007   3.17280   3.17952
 Alpha virt. eigenvalues --    3.22748   3.26746   3.28218   3.32106   3.36973
 Alpha virt. eigenvalues --    3.37522   3.39423   3.41890   3.42643   3.43178
 Alpha virt. eigenvalues --    3.43733   3.44360   3.45878   3.47951   3.49378
 Alpha virt. eigenvalues --    3.56370   3.95064   4.00153   4.08214   4.13055
 Alpha virt. eigenvalues --    4.17248   4.30764   4.37094   4.39977   4.45507
 Alpha virt. eigenvalues --    4.49165   4.51470   4.60414   4.68407   4.70861
          Condensed to atoms (all electrons):
              1          2          3          4          5          6
     1  C    5.149670   0.352168  -0.080140  -0.120002   0.005407  -0.000052
     2  C    0.352168   4.367648   0.583613   0.258746  -0.027298   0.002758
     3  O   -0.080140   0.583613   8.079009  -0.098163  -0.013578   0.000513
     4  N   -0.120002   0.258746  -0.098163   7.087973   0.270924  -0.035036
     5  C    0.005407  -0.027298  -0.013578   0.270924   5.107018   0.295103
     6  C   -0.000052   0.002758   0.000513  -0.035036   0.295103   4.427277
     7  O   -0.000013   0.000165  -0.000002   0.001640  -0.085971   0.567310
     8  N    0.000001  -0.000039  -0.000002   0.002590  -0.110920   0.273593
     9  C    0.000000   0.000009   0.000005   0.000333   0.000040  -0.027654
    10  C    0.000000   0.000001   0.000000  -0.000066   0.005381  -0.026484
    11  H    0.367520  -0.023428   0.005310   0.004674  -0.000109   0.000001
    12  H    0.360951  -0.021080   0.001735   0.000685  -0.000289  -0.000010
    13  H    0.364013  -0.021618   0.001299   0.003194  -0.000072   0.000015
    14  H    0.001537  -0.004363   0.031959  -0.039792   0.362428  -0.016502
    15  H   -0.000142  -0.001295   0.001497  -0.046853   0.366858  -0.040903
    16  H   -0.000001  -0.000013  -0.000036   0.000109   0.008558  -0.009970
    17  H    0.000000   0.000000   0.000000  -0.000005  -0.000362   0.001654
    18  H    0.000000   0.000000   0.000000  -0.000007  -0.000297   0.000245
    19  H    0.000000   0.000000   0.000000   0.000001  -0.000119   0.002039
    20  H    0.000000   0.000000   0.000000  -0.000009   0.001141  -0.002973
    21  H    0.000000   0.000000   0.000000   0.000001  -0.000099  -0.000050
    22  C    0.000639  -0.026889   0.002490   0.260000  -0.043189  -0.002178
    23  H    0.007969  -0.009709   0.000063  -0.029979   0.004783  -0.000036
    24  H   -0.000237   0.003052  -0.000092  -0.030455  -0.008137   0.003238
    25  C   -0.002561  -0.002110   0.000031  -0.055631  -0.003041  -0.000491
    26  H   -0.001056   0.003828  -0.000133   0.002423  -0.000196   0.000012
    27  H    0.000154  -0.000455   0.000000   0.000228   0.001662   0.000149
    28  O    0.000013   0.000015   0.000000   0.002147  -0.000029   0.000008
    29  C    0.000001  -0.000005   0.000000  -0.000133   0.000001   0.000000
    30  H    0.000000   0.000000   0.000000   0.000001   0.000000   0.000000
    31  H    0.000000   0.000000   0.000000   0.000009  -0.000002   0.000000
    32  H   -0.000002   0.000000   0.000000   0.000009   0.000000   0.000000
              7          8          9         10         11         12
     1  C   -0.000013   0.000001   0.000000   0.000000   0.367520   0.360951
     2  C    0.000165  -0.000039   0.000009   0.000001  -0.023428  -0.021080
     3  O   -0.000002  -0.000002   0.000005   0.000000   0.005310   0.001735
     4  N    0.001640   0.002590   0.000333  -0.000066   0.004674   0.000685
     5  C   -0.085971  -0.110920   0.000040   0.005381  -0.000109  -0.000289
     6  C    0.567310   0.273593  -0.027654  -0.026484   0.000001  -0.000010
     7  O    8.098982  -0.092011   0.002679  -0.012112   0.000000   0.000001
     8  N   -0.092011   7.018982   0.299067   0.291930   0.000000   0.000000
     9  C    0.002679   0.299067   4.807023  -0.051577   0.000000   0.000000
    10  C   -0.012112   0.291930  -0.051577   4.817721   0.000000   0.000000
    11  H    0.000000   0.000000   0.000000   0.000000   0.548682  -0.023164
    12  H    0.000001   0.000000   0.000000   0.000000  -0.023164   0.580786
    13  H    0.000000   0.000000   0.000000   0.000000  -0.021602  -0.028497
    14  H    0.000516  -0.000047  -0.001212  -0.000146  -0.000036  -0.000040
    15  H    0.001501   0.004342  -0.003258  -0.000254   0.000004   0.000036
    16  H    0.000067  -0.027774   0.385842   0.004269   0.000000   0.000000
    17  H   -0.000038  -0.045742   0.383377  -0.002449   0.000000   0.000000
    18  H   -0.000018  -0.045091   0.383684  -0.002348   0.000000   0.000000
    19  H    0.000683  -0.045254  -0.001608   0.384723   0.000000   0.000000
    20  H    0.023714  -0.035474   0.004304   0.383900   0.000000   0.000000
    21  H    0.000651  -0.045029  -0.002059   0.388215   0.000000   0.000000
    22  C   -0.010799  -0.000021   0.000005  -0.000002   0.000304  -0.000061
    23  H    0.000271  -0.000004   0.000000   0.000000   0.000076  -0.002559
    24  H    0.020102  -0.000090  -0.000015   0.000025  -0.000006   0.000148
    25  C    0.000371   0.000047  -0.000004  -0.000001   0.000012   0.000185
    26  H   -0.000011   0.000000   0.000000   0.000000  -0.000041   0.003884
    27  H    0.000104  -0.000047   0.000000   0.000000   0.000000  -0.000091
    28  O    0.000000   0.000000   0.000000   0.000000   0.000000  -0.000072
    29  C    0.000000   0.000000   0.000000   0.000000   0.000000  -0.000003
    30  H    0.000000   0.000000   0.000000   0.000000   0.000000   0.000000
    31  H    0.000000   0.000000   0.000000   0.000000   0.000000   0.000000
    32  H    0.000000   0.000000   0.000000   0.000000   0.000000   0.000005
             13         14         15         16         17         18
     1  C    0.364013   0.001537  -0.000142  -0.000001   0.000000   0.000000
     2  C   -0.021618  -0.004363  -0.001295  -0.000013   0.000000   0.000000
     3  O    0.001299   0.031959   0.001497  -0.000036   0.000000   0.000000
     4  N    0.003194  -0.039792  -0.046853   0.000109  -0.000005  -0.000007
     5  C   -0.000072   0.362428   0.366858   0.008558  -0.000362  -0.000297
     6  C    0.000015  -0.016502  -0.040903  -0.009970   0.001654   0.000245
     7  O    0.000000   0.000516   0.001501   0.000067  -0.000038  -0.000018
     8  N    0.000000  -0.000047   0.004342  -0.027774  -0.045742  -0.045091
     9  C    0.000000  -0.001212  -0.003258   0.385842   0.383377   0.383684
    10  C    0.000000  -0.000146  -0.000254   0.004269  -0.002449  -0.002348
    11  H   -0.021602  -0.000036   0.000004   0.000000   0.000000   0.000000
    12  H   -0.028497  -0.000040   0.000036   0.000000   0.000000   0.000000
    13  H    0.565469  -0.000067  -0.000009   0.000000   0.000000   0.000000
    14  H   -0.000067   0.518703  -0.032968   0.000129  -0.000021   0.000297
    15  H   -0.000009  -0.032968   0.629190   0.001180   0.000330   0.000136
    16  H    0.000000   0.000129   0.001180   0.559180  -0.027907  -0.027709
    17  H    0.000000  -0.000021   0.000330  -0.027907   0.614122  -0.047135
    18  H    0.000000   0.000297   0.000136  -0.027709  -0.047135   0.609624
    19  H    0.000000  -0.000008   0.000024   0.000016   0.006593  -0.002058
    20  H    0.000000  -0.000017  -0.000048  -0.000238  -0.000018  -0.000095
    21  H    0.000000   0.000026  -0.000010  -0.000013  -0.001838   0.007291
    22  C   -0.003842   0.003990  -0.000665   0.000011   0.000000   0.000000
    23  H    0.001634  -0.000157  -0.000162   0.000000   0.000000   0.000000
    24  H    0.000109   0.000154  -0.001549  -0.000003   0.000003  -0.000001
    25  C    0.000200  -0.000070   0.003152  -0.000001   0.000000   0.000000
    26  H    0.000066  -0.000024  -0.000226   0.000000   0.000000   0.000000
    27  H   -0.000010   0.000005   0.002159  -0.000009   0.000002   0.000000
    28  O   -0.000008   0.000000  -0.000079   0.000000   0.000000   0.000000
    29  C    0.000000   0.000000   0.000006   0.000000   0.000000   0.000000
    30  H    0.000000   0.000000   0.000000   0.000000   0.000000   0.000000
    31  H    0.000000   0.000000   0.000003   0.000000   0.000000   0.000000
    32  H    0.000000   0.000000   0.000000   0.000000   0.000000   0.000000
             19         20         21         22         23         24
     1  C    0.000000   0.000000   0.000000   0.000639   0.007969  -0.000237
     2  C    0.000000   0.000000   0.000000  -0.026889  -0.009709   0.003052
     3  O    0.000000   0.000000   0.000000   0.002490   0.000063  -0.000092
     4  N    0.000001  -0.000009   0.000001   0.260000  -0.029979  -0.030455
     5  C   -0.000119   0.001141  -0.000099  -0.043189   0.004783  -0.008137
     6  C    0.002039  -0.002973  -0.000050  -0.002178  -0.000036   0.003238
     7  O    0.000683   0.023714   0.000651  -0.010799   0.000271   0.020102
     8  N   -0.045254  -0.035474  -0.045029  -0.000021  -0.000004  -0.000090
     9  C   -0.001608   0.004304  -0.002059   0.000005   0.000000  -0.000015
    10  C    0.384723   0.383900   0.388215  -0.000002   0.000000   0.000025
    11  H    0.000000   0.000000   0.000000   0.000304   0.000076  -0.000006
    12  H    0.000000   0.000000   0.000000  -0.000061  -0.002559   0.000148
    13  H    0.000000   0.000000   0.000000  -0.003842   0.001634   0.000109
    14  H   -0.000008  -0.000017   0.000026   0.003990  -0.000157   0.000154
    15  H    0.000024  -0.000048  -0.000010  -0.000665  -0.000162  -0.001549
    16  H    0.000016  -0.000238  -0.000013   0.000011   0.000000  -0.000003
    17  H    0.006593  -0.000018  -0.001838   0.000000   0.000000   0.000003
    18  H   -0.002058  -0.000095   0.007291   0.000000   0.000000  -0.000001
    19  H    0.613362  -0.023302  -0.044874   0.000000   0.000000   0.000002
    20  H   -0.023302   0.512765  -0.025722   0.000000   0.000000   0.000014
    21  H   -0.044874  -0.025722   0.609288   0.000000   0.000000  -0.000001
    22  C    0.000000   0.000000   0.000000   4.925901   0.375826   0.374035
    23  H    0.000000   0.000000   0.000000   0.375826   0.596404  -0.024880
    24  H    0.000002   0.000014  -0.000001   0.374035  -0.024880   0.543701
    25  C    0.000000  -0.000001   0.000000   0.350955  -0.045476  -0.043451
    26  H    0.000000   0.000000   0.000000  -0.038952  -0.008501   0.005876
    27  H    0.000000   0.000000   0.000000  -0.038728   0.006617  -0.007294
    28  O    0.000000   0.000000   0.000000  -0.039641   0.005543   0.005443
    29  C    0.000000   0.000000   0.000000   0.004310  -0.000113  -0.000107
    30  H    0.000000   0.000000   0.000000  -0.000244   0.000007   0.000006
    31  H    0.000000   0.000000   0.000000   0.000064   0.000053  -0.000058
    32  H    0.000000   0.000000   0.000000   0.000026  -0.000065   0.000043
             25         26         27         28         29         30
     1  C   -0.002561  -0.001056   0.000154   0.000013   0.000001   0.000000
     2  C   -0.002110   0.003828  -0.000455   0.000015  -0.000005   0.000000
     3  O    0.000031  -0.000133   0.000000   0.000000   0.000000   0.000000
     4  N   -0.055631   0.002423   0.000228   0.002147  -0.000133   0.000001
     5  C   -0.003041  -0.000196   0.001662  -0.000029   0.000001   0.000000
     6  C   -0.000491   0.000012   0.000149   0.000008   0.000000   0.000000
     7  O    0.000371  -0.000011   0.000104   0.000000   0.000000   0.000000
     8  N    0.000047   0.000000  -0.000047   0.000000   0.000000   0.000000
     9  C   -0.000004   0.000000   0.000000   0.000000   0.000000   0.000000
    10  C   -0.000001   0.000000   0.000000   0.000000   0.000000   0.000000
    11  H    0.000012  -0.000041   0.000000   0.000000   0.000000   0.000000
    12  H    0.000185   0.003884  -0.000091  -0.000072  -0.000003   0.000000
    13  H    0.000200   0.000066  -0.000010  -0.000008   0.000000   0.000000
    14  H   -0.000070  -0.000024   0.000005   0.000000   0.000000   0.000000
    15  H    0.003152  -0.000226   0.002159  -0.000079   0.000006   0.000000
    16  H   -0.000001   0.000000  -0.000009   0.000000   0.000000   0.000000
    17  H    0.000000   0.000000   0.000002   0.000000   0.000000   0.000000
    18  H    0.000000   0.000000   0.000000   0.000000   0.000000   0.000000
    19  H    0.000000   0.000000   0.000000   0.000000   0.000000   0.000000
    20  H   -0.000001   0.000000   0.000000   0.000000   0.000000   0.000000
    21  H    0.000000   0.000000   0.000000   0.000000   0.000000   0.000000
    22  C    0.350955  -0.038952  -0.038728  -0.039641   0.004310  -0.000244
    23  H   -0.045476  -0.008501   0.006617   0.005543  -0.000113   0.000007
    24  H   -0.043451   0.005876  -0.007294   0.005443  -0.000107   0.000006
    25  C    4.803838   0.356702   0.361050   0.233776  -0.033974   0.005464
    26  H    0.356702   0.697177  -0.063924  -0.039202  -0.006295  -0.000117
    27  H    0.361050  -0.063924   0.695767  -0.039184  -0.006657  -0.000105
    28  O    0.233776  -0.039202  -0.039184   8.200982   0.258942  -0.032863
    29  C   -0.033974  -0.006295  -0.006657   0.258942   4.708643   0.394743
    30  H    0.005464  -0.000117  -0.000105  -0.032863   0.394743   0.584863
    31  H   -0.009529  -0.002699   0.014009  -0.037616   0.369630  -0.034697
    32  H   -0.009156   0.013246  -0.002860  -0.037559   0.369917  -0.035169
             31         32
     1  C    0.000000  -0.000002
     2  C    0.000000   0.000000
     3  O    0.000000   0.000000
     4  N    0.000009   0.000009
     5  C   -0.000002   0.000000
     6  C    0.000000   0.000000
     7  O    0.000000   0.000000
     8  N    0.000000   0.000000
     9  C    0.000000   0.000000
    10  C    0.000000   0.000000
    11  H    0.000000   0.000000
    12  H    0.000000   0.000005
    13  H    0.000000   0.000000
    14  H    0.000000   0.000000
    15  H    0.000003   0.000000
    16  H    0.000000   0.000000
    17  H    0.000000   0.000000
    18  H    0.000000   0.000000
    19  H    0.000000   0.000000
    20  H    0.000000   0.000000
    21  H    0.000000   0.000000
    22  C    0.000064   0.000026
    23  H    0.000053  -0.000065
    24  H   -0.000058   0.000043
    25  C   -0.009529  -0.009156
    26  H   -0.002699   0.013246
    27  H    0.014009  -0.002860
    28  O   -0.037616  -0.037559
    29  C    0.369630   0.369917
    30  H   -0.034697  -0.035169
    31  H    0.662552  -0.052909
    32  H   -0.052909   0.662912
 Mulliken atomic charges:
              1
     1  C   -0.405839
     2  C    0.566298
     3  O   -0.515380
     4  N   -0.439557
     5  C   -0.135594
     6  C    0.588424
     7  O   -0.517783
     8  N   -0.443006
     9  C   -0.178980
    10  C   -0.180725
    11  H    0.141802
    12  H    0.127451
    13  H    0.139725
    14  H    0.175723
    15  H    0.118004
    16  H    0.134313
    17  H    0.119434
    18  H    0.123482
    19  H    0.109782
    20  H    0.162059
    21  H    0.114223
    22  C   -0.093345
    23  H    0.122392
    24  H    0.160422
    25  C    0.089713
    26  H    0.078163
    27  H    0.077460
    28  O   -0.480617
    29  C   -0.058907
    30  H    0.118111
    31  H    0.091191
    32  H    0.091562
 Sum of Mulliken atomic charges =   0.00000
 Mulliken charges with hydrogens summed into heavy atoms:
              1
     1  C    0.003139
     2  C    0.566298
     3  O   -0.515380
     4  N   -0.439557
     5  C    0.158133
     6  C    0.588424
     7  O   -0.517783
     8  N   -0.443006
     9  C    0.198249
    10  C    0.205339
    22  C    0.189469
    25  C    0.245336
    28  O   -0.480617
    29  C    0.241956
 Sum of Mulliken charges with hydrogens summed into heavy atoms =   0.00000
 Electronic spatial extent (au):  <R**2>=           3882.9267
 Charge=              0.0000 electrons
 Dipole moment (field-independent basis, Debye):
    X=              0.5578    Y=             -2.5635    Z=              2.6692  Tot=              3.7427
 Quadrupole moment (field-independent basis, Debye-Ang):
   XX=            -67.6801   YY=            -92.5998   ZZ=            -87.7699
   XY=             -1.8728   XZ=              3.4495   YZ=             -7.7105
 Traceless Quadrupole moment (field-independent basis, Debye-Ang):
   XX=             15.0032   YY=             -9.9165   ZZ=             -5.0866
   XY=             -1.8728   XZ=              3.4495   YZ=             -7.7105
 Octapole moment (field-independent basis, Debye-Ang**2):
  XXX=             26.4145  YYY=            -45.9864  ZZZ=              4.4506  XYY=            -11.0114
  XXY=             -9.5322  XXZ=             16.2734  XZZ=             -2.1065  YZZ=             -1.4668
  YYZ=            -11.4891  XYZ=             11.4463
 Hexadecapole moment (field-independent basis, Debye-Ang**3):
 XXXX=          -2857.3160 YYYY=          -1550.2387 ZZZZ=           -451.2028 XXXY=             15.7633
 XXXZ=            -21.1596 YYYX=             34.7710 YYYZ=            -48.7841 ZZZX=             19.9272
 ZZZY=              3.3049 XXYY=           -674.9534 XXZZ=           -578.8249 YYZZ=           -324.8200
 XXYZ=            -15.9361 YYXZ=             -8.1860 ZZXY=              1.7271
 N-N= 9.587011837335D+02 E-N=-3.523168122943D+03  KE= 6.826156452762D+02
 Calling FoFJK, ICntrl=      2127 FMM=F ISym2X=0 I1Cent= 0 IOpClX= 0 NMat=1 NMatS=1 NMatT=0.
 ***** Axes restored to original set *****
 -------------------------------------------------------------------
 Center     Atomic                   Forces (Hartrees/Bohr)
 Number     Number              X              Y              Z
 -------------------------------------------------------------------
      1        6          -0.000000823    0.000000762    0.000001369
      2        6          -0.001684526    0.001288078    0.002653404
      3        8          -0.000000871   -0.000000550   -0.000000274
      4        7           0.001891367   -0.000724775   -0.003319954
      5        6           0.000942102   -0.003149656   -0.000357787
      6        6          -0.001149245    0.002587207    0.001021894
      7        8          -0.000001129   -0.000000114   -0.000000457
      8        7          -0.000002955   -0.000002118   -0.000001660
      9        6           0.000000320   -0.000001863   -0.000001411
     10        6           0.000000647   -0.000002072   -0.000001483
     11        1          -0.000001743    0.000001352   -0.000000191
     12        1          -0.000001061    0.000000995    0.000001272
     13        1          -0.000001749    0.000001220    0.000000105
     14        1          -0.000000168   -0.000000862   -0.000001453
     15        1           0.000000677   -0.000000105   -0.000000096
     16        1           0.000001332   -0.000001083   -0.000002019
     17        1           0.000001472   -0.000001811   -0.000001801
     18        1           0.000001054   -0.000002275   -0.000002362
     19        1           0.000000289   -0.000001232   -0.000001480
     20        1          -0.000000281   -0.000000736   -0.000001412
     21        1          -0.000000771   -0.000001229   -0.000002487
     22        6          -0.000001545    0.000001775    0.000001736
     23        1          -0.000000376    0.000001842    0.000000952
     24        1           0.000000102    0.000000462   -0.000000050
     25        6           0.000001430    0.000000761    0.000000538
     26        1           0.000000429    0.000000450    0.000001640
     27        1           0.000000744   -0.000000064    0.000000768
     28        8           0.000000286    0.000000327    0.000000857
     29        6          -0.000000035    0.000002879    0.000004823
     30        1           0.000001672    0.000001107    0.000003317
     31        1           0.000001561   -0.000000009    0.000001737
     32        1           0.000001794    0.000001334    0.000001965
 -------------------------------------------------------------------
 Cartesian Forces:  Max     0.003319954 RMS     0.000697142

 GradGradGradGradGradGradGradGradGradGradGradGradGradGradGradGradGradGrad
 Berny optimization.
 Internal  Forces:  Max     0.003043060 RMS     0.000409669
 Search for a local minimum.
 Step number   1 out of a maximum of  155 on scan point     1 out of    37
 All quantities printed in internal units (Hartrees-Bohrs-Radians)
 Mixed Optimization -- En-DIIS/RFO-DIIS
 Second derivative matrix not updated -- first step.
 ITU=  0
     Eigenvalues ---    0.00338   0.00475   0.00713   0.00833   0.00942
     Eigenvalues ---    0.00975   0.01061   0.01223   0.01274   0.01525
     Eigenvalues ---    0.01533   0.01902   0.02031   0.02788   0.04075
     Eigenvalues ---    0.05326   0.05415   0.05807   0.06359   0.06932
     Eigenvalues ---    0.07278   0.07459   0.07462   0.07482   0.07647
     Eigenvalues ---    0.09550   0.10036   0.10151   0.10508   0.11013
     Eigenvalues ---    0.11139   0.12936   0.13614   0.16000   0.16000
     Eigenvalues ---    0.16000   0.16000   0.16000   0.16000   0.16000
     Eigenvalues ---    0.16000   0.16000   0.16000   0.16000   0.16000
     Eigenvalues ---    0.21911   0.21957   0.21982   0.23187   0.23997
     Eigenvalues ---    0.24838   0.24916   0.24977   0.24999   0.25000
     Eigenvalues ---    0.25000   0.25000   0.28899   0.29207   0.30173
     Eigenvalues ---    0.33248   0.33278   0.33520   0.33524   0.33698
     Eigenvalues ---    0.33903   0.33939   0.33946   0.34055   0.34291
     Eigenvalues ---    0.34344   0.34506   0.34539   0.34726   0.34891
     Eigenvalues ---    0.34936   0.35026   0.35103   0.36354   0.37285
     Eigenvalues ---    0.37386   0.37701   0.43599   0.43682   0.48364
     Eigenvalues ---    0.50148   0.91875   0.921331000.000001000.00000
     Eigenvalues --- 1000.000001000.000001000.000001000.000001000.00000
     Eigenvalues --- 1000.000001000.000001000.000001000.000001000.00000
     Eigenvalues --- 1000.000001000.000001000.000001000.000001000.00000
     Eigenvalues --- 1000.000001000.000001000.000001000.000001000.00000
     Eigenvalues --- 1000.000001000.000001000.000001000.000001000.00000
     Eigenvalues --- 1000.000001000.000001000.000001000.000001000.00000
     Eigenvalues --- 1000.000001000.000001000.000001000.000001000.00000
     Eigenvalues --- 1000.000001000.000001000.000001000.000001000.00000
     Eigenvalues --- 1000.000001000.000001000.000001000.000001000.00000
     Eigenvalues --- 1000.000001000.000001000.000001000.000001000.00000
     Eigenvalues --- 1000.000001000.000001000.000001000.000001000.00000
 RFO step:  Lambda= 0.00000000D+00 EMin= 3.37972185D-03
 Linear search not attempted -- first point.
 Iteration  1 RMS(Cart)=  0.00002273 RMS(Int)=  0.00000000
 Iteration  2 RMS(Cart)=  0.00000000 RMS(Int)=  0.00000000
 Iteration  1 RMS(Cart)=  0.00000000 RMS(Int)=  0.00000000
 Variable       Old X    -DE/DX   Delta X   Delta X   Delta X     New X
                                 (Linear)    (Quad)   (Total)
    R1        2.87619   0.00000   0.00000   0.00000   0.00000   2.87620
    R2        2.05853   0.00000   0.00000   0.00000   0.00000   2.05853
    R3        2.06754   0.00000   0.00000   0.00000   0.00000   2.06754
    R4        2.06841   0.00000   0.00000   0.00000   0.00000   2.06841
    R5        2.32081   0.00000   0.00000   0.00000   0.00000   2.32081
    R6        2.61553   0.00000   0.00000   0.00000   0.00000   2.61553
    R7        2.75418   0.00000   0.00000   0.00000   0.00000   2.75419
    R8        2.76831   0.00000   0.00000   0.00000   0.00000   2.76831
    R9        2.90214   0.00000   0.00000  -0.00001  -0.00001   2.90214
   R10        2.06485   0.00000   0.00000   0.00000   0.00000   2.06485
   R11        2.07843   0.00000   0.00000   0.00000   0.00000   2.07843
   R12        2.31965   0.00000   0.00000   0.00000   0.00000   2.31965
   R13        2.59717   0.00000   0.00000   0.00001   0.00001   2.59717
   R14        2.74803   0.00000   0.00000   0.00000   0.00000   2.74803
   R15        2.75268   0.00000   0.00000   0.00000   0.00000   2.75268
   R16        2.05508   0.00000   0.00000   0.00000   0.00000   2.05508
   R17        2.07422   0.00000   0.00000   0.00000   0.00000   2.07422
   R18        2.07493   0.00000   0.00000   0.00000   0.00000   2.07493
   R19        2.07238   0.00000   0.00000   0.00000   0.00000   2.07238
   R20        2.05633   0.00000   0.00000   0.00000   0.00000   2.05633
   R21        2.07433   0.00000   0.00000   0.00000   0.00000   2.07433
   R22        2.06123   0.00000   0.00000   0.00000   0.00000   2.06123
   R23        2.05780   0.00000   0.00000   0.00000   0.00000   2.05779
   R24        2.89573   0.00000   0.00000   0.00000   0.00000   2.89573
   R25        2.08619   0.00000   0.00000   0.00000   0.00000   2.08618
   R26        2.08566   0.00000   0.00000   0.00000   0.00000   2.08566
   R27        2.66938   0.00000   0.00000   0.00000   0.00000   2.66938
   R28        2.66837   0.00000   0.00000   0.00000   0.00000   2.66836
   R29        2.06430   0.00000   0.00000   0.00000   0.00000   2.06430
   R30        2.08140   0.00000   0.00000   0.00000   0.00000   2.08141
   R31        2.08148   0.00000   0.00000   0.00000   0.00000   2.08148
    A1        1.86955   0.00000   0.00000   0.00000   0.00000   1.86955
    A2        1.96350   0.00000   0.00000   0.00000   0.00000   1.96350
    A3        1.94258   0.00000   0.00000   0.00000   0.00000   1.94258
    A4        1.90233   0.00000   0.00000   0.00000   0.00000   1.90234
    A5        1.90527   0.00000   0.00000   0.00000   0.00000   1.90527
    A6        1.87988   0.00000   0.00000   0.00000   0.00000   1.87988
    A7        2.10338   0.00000   0.00000   0.00000   0.00000   2.10338
    A8        2.05198   0.00000   0.00000  -0.00001  -0.00001   2.05198
    A9        2.12686   0.00000   0.00000   0.00000   0.00000   2.12686
   A10        2.02169  -0.00019   0.00000  -0.00001  -0.00001   2.02169
   A11        2.13380   0.00061   0.00000   0.00000   0.00000   2.13379
   A12        2.07298  -0.00012   0.00000   0.00001   0.00001   2.07298
   A13        1.98482   0.00006   0.00000   0.00001   0.00001   1.98483
   A14        1.84958  -0.00013   0.00000   0.00000   0.00000   1.84958
   A15        1.93053   0.00008   0.00000   0.00000   0.00000   1.93053
   A16        1.93145  -0.00138   0.00000   0.00000   0.00000   1.93145
   A17        1.90368   0.00129   0.00000   0.00000   0.00000   1.90368
   A18        1.85937   0.00000   0.00000   0.00000   0.00000   1.85937
   A19        2.12898   0.00000   0.00000   0.00001   0.00001   2.12898
   A20        2.02671   0.00000   0.00000  -0.00001  -0.00001   2.02670
   A21        2.12747   0.00000   0.00000   0.00000   0.00000   2.12748
   A22        2.19531   0.00000   0.00000  -0.00001  -0.00001   2.19530
   A23        2.07314   0.00000   0.00000   0.00001   0.00001   2.07314
   A24        2.00980   0.00000   0.00000   0.00000   0.00000   2.00980
   A25        1.95229   0.00000   0.00000   0.00000   0.00000   1.95229
   A26        1.92832   0.00000   0.00000   0.00000   0.00000   1.92833
   A27        1.92743   0.00000   0.00000   0.00000   0.00000   1.92743
   A28        1.88877   0.00000   0.00000   0.00000   0.00000   1.88877
   A29        1.88331   0.00000   0.00000   0.00000   0.00000   1.88330
   A30        1.88153   0.00000   0.00000   0.00000   0.00000   1.88153
   A31        1.92224   0.00000   0.00000   0.00000   0.00000   1.92224
   A32        1.89480   0.00000   0.00000   0.00000   0.00000   1.89480
   A33        1.93348   0.00000   0.00000   0.00000   0.00000   1.93348
   A34        1.91666   0.00000   0.00000   0.00000   0.00000   1.91666
   A35        1.89009   0.00000   0.00000   0.00000   0.00000   1.89008
   A36        1.90659   0.00000   0.00000   0.00000   0.00000   1.90659
   A37        1.91164   0.00000   0.00000   0.00000   0.00000   1.91164
   A38        1.88887   0.00000   0.00000   0.00000   0.00000   1.88888
   A39        1.97690   0.00000   0.00000   0.00000   0.00000   1.97690
   A40        1.86231   0.00000   0.00000   0.00000   0.00000   1.86231
   A41        1.90073   0.00000   0.00000   0.00000   0.00000   1.90073
   A42        1.91994   0.00000   0.00000   0.00000   0.00000   1.91994
   A43        1.93293   0.00000   0.00000   0.00000   0.00000   1.93293
   A44        1.93073   0.00000   0.00000   0.00000   0.00000   1.93074
   A45        1.87099   0.00000   0.00000   0.00000   0.00000   1.87099
   A46        1.86509   0.00000   0.00000   0.00000   0.00000   1.86509
   A47        1.93509   0.00000   0.00000   0.00000   0.00000   1.93509
   A48        1.92990   0.00000   0.00000   0.00000   0.00000   1.92990
   A49        1.97291   0.00000   0.00000   0.00000   0.00000   1.97291
   A50        1.87258   0.00000   0.00000   0.00000   0.00000   1.87258
   A51        1.95083   0.00000   0.00000   0.00000   0.00000   1.95083
   A52        1.95217   0.00000   0.00000   0.00000   0.00000   1.95217
   A53        1.89988   0.00000   0.00000   0.00000   0.00000   1.89988
   A54        1.89963   0.00000   0.00000   0.00000   0.00000   1.89963
   A55        1.88768   0.00000   0.00000   0.00000   0.00000   1.88768
    D1       -0.00279   0.00000   0.00000  -0.00003  -0.00003  -0.00282
    D2       -3.09815   0.00000   0.00000  -0.00001  -0.00001  -3.09816
    D3       -2.09281   0.00000   0.00000  -0.00003  -0.00003  -2.09284
    D4        1.09501   0.00000   0.00000  -0.00001  -0.00001   1.09500
    D5        2.07868   0.00000   0.00000  -0.00003  -0.00003   2.07865
    D6       -1.01668   0.00000   0.00000  -0.00001  -0.00001  -1.01669
    D7       -3.08536  -0.00045   0.00000  -0.00001  -0.00001  -3.08537
    D8       -0.29785   0.00045   0.00000  -0.00002  -0.00002  -0.29787
    D9        0.10312  -0.00045   0.00000   0.00001   0.00001   0.10313
   D10        2.89064   0.00045   0.00000   0.00000   0.00000   2.89063
   D11       -2.46667   0.00304   0.00000   0.00000   0.00000  -2.46667
   D12       -0.34114   0.00127   0.00000   0.00000   0.00000  -0.34114
   D13        1.66742   0.00123   0.00000   0.00000   0.00000   1.66742
   D14        1.01601   0.00201   0.00000   0.00002   0.00002   1.01602
   D15        3.14154   0.00024   0.00000   0.00002   0.00002   3.14156
   D16       -1.13309   0.00020   0.00000   0.00001   0.00001  -1.13307
   D17        0.68939  -0.00046   0.00000   0.00000   0.00000   0.68939
   D18        2.71336  -0.00046   0.00000   0.00001   0.00001   2.71337
   D19       -1.43614  -0.00046   0.00000   0.00001   0.00001  -1.43613
   D20       -2.81622   0.00046   0.00000  -0.00002  -0.00002  -2.81624
   D21       -0.79225   0.00046   0.00000  -0.00001  -0.00001  -0.79225
   D22        1.34144   0.00046   0.00000  -0.00001  -0.00001   1.34143
   D23        0.06667  -0.00075   0.00000   0.00001   0.00001   0.06668
   D24       -3.06718  -0.00075   0.00000   0.00000   0.00000  -3.06718
   D25       -2.01276   0.00036   0.00000   0.00001   0.00001  -2.01275
   D26        1.13658   0.00036   0.00000   0.00000   0.00000   1.13658
   D27        2.23038   0.00039   0.00000   0.00001   0.00001   2.23039
   D28       -0.90347   0.00039   0.00000   0.00000   0.00000  -0.90347
   D29       -0.11865   0.00000   0.00000   0.00001   0.00001  -0.11864
   D30        3.13500   0.00000   0.00000   0.00000   0.00000   3.13500
   D31        3.03068   0.00000   0.00000   0.00000   0.00000   3.03068
   D32        0.00114   0.00000   0.00000  -0.00001  -0.00001   0.00113
   D33        0.06692   0.00000   0.00000  -0.00001  -0.00001   0.06692
   D34        2.17228   0.00000   0.00000  -0.00001  -0.00001   2.17227
   D35       -2.03089   0.00000   0.00000  -0.00001  -0.00001  -2.03090
   D36        3.10003   0.00000   0.00000   0.00000   0.00000   3.10003
   D37       -1.07780   0.00000   0.00000   0.00000   0.00000  -1.07780
   D38        1.00222   0.00000   0.00000   0.00000   0.00000   1.00222
   D39       -2.22523   0.00000   0.00000  -0.00001  -0.00001  -2.22524
   D40       -0.12617   0.00000   0.00000   0.00000   0.00000  -0.12617
   D41        1.96733   0.00000   0.00000   0.00000   0.00000   1.96733
   D42        1.01675   0.00000   0.00000  -0.00001  -0.00001   1.01674
   D43        3.11581   0.00000   0.00000  -0.00001  -0.00001   3.11580
   D44       -1.07387   0.00000   0.00000  -0.00001  -0.00001  -1.07388
   D45        1.01867   0.00000   0.00000   0.00002   0.00002   1.01869
   D46       -1.04594   0.00000   0.00000   0.00002   0.00002  -1.04593
   D47        3.13176   0.00000   0.00000   0.00002   0.00002   3.13178
   D48       -1.11295   0.00000   0.00000   0.00002   0.00002  -1.11293
   D49        3.10563   0.00000   0.00000   0.00002   0.00002   3.10565
   D50        1.00015   0.00000   0.00000   0.00002   0.00002   1.00017
   D51        3.13495   0.00000   0.00000   0.00002   0.00002   3.13497
   D52        1.07034   0.00000   0.00000   0.00002   0.00002   1.07036
   D53       -1.03514   0.00000   0.00000   0.00002   0.00002  -1.03512
   D54        3.11396   0.00000   0.00000   0.00000   0.00000   3.11396
   D55       -1.05750   0.00000   0.00000   0.00000   0.00000  -1.05750
   D56        1.00795   0.00000   0.00000   0.00000   0.00000   1.00795
   D57       -3.13577   0.00000   0.00000  -0.00002  -0.00002  -3.13579
   D58       -1.05423   0.00000   0.00000  -0.00002  -0.00002  -1.05425
   D59        1.06541   0.00000   0.00000  -0.00002  -0.00002   1.06539
         Item               Value     Threshold  Converged?
 Maximum Force            0.000003     0.000450     YES
 RMS     Force            0.000001     0.000300     YES
 Maximum Displacement     0.000078     0.001800     YES
 RMS     Displacement     0.000023     0.001200     YES
 Predicted change in Energy=-1.299414D-10
 Optimization completed.
    -- Stationary point found.
                           ----------------------------
                           !   Optimized Parameters   !
                           ! (Angstroms and Degrees)  !
 --------------------------                            --------------------------
 ! Name  Definition              Value          Derivative Info.                !
 --------------------------------------------------------------------------------
 ! R1    R(1,2)                  1.522          -DE/DX =    0.0                 !
 ! R2    R(1,11)                 1.0893         -DE/DX =    0.0                 !
 ! R3    R(1,12)                 1.0941         -DE/DX =    0.0                 !
 ! R4    R(1,13)                 1.0946         -DE/DX =    0.0                 !
 ! R5    R(2,3)                  1.2281         -DE/DX =    0.0                 !
 ! R6    R(2,4)                  1.3841         -DE/DX =    0.0                 !
 ! R7    R(4,5)                  1.4575         -DE/DX =    0.0                 !
 ! R8    R(4,22)                 1.4649         -DE/DX =    0.0                 !
 ! R9    R(5,6)                  1.5357         -DE/DX =    0.0                 !
 ! R10   R(5,14)                 1.0927         -DE/DX =    0.0                 !
 ! R11   R(5,15)                 1.0999         -DE/DX =    0.0                 !
 ! R12   R(6,7)                  1.2275         -DE/DX =    0.0                 !
 ! R13   R(6,8)                  1.3744         -DE/DX =    0.0                 !
 ! R14   R(8,9)                  1.4542         -DE/DX =    0.0                 !
 ! R15   R(8,10)                 1.4567         -DE/DX =    0.0                 !
 ! R16   R(9,16)                 1.0875         -DE/DX =    0.0                 !
 ! R17   R(9,17)                 1.0976         -DE/DX =    0.0                 !
 ! R18   R(9,18)                 1.098          -DE/DX =    0.0                 !
 ! R19   R(10,19)                1.0967         -DE/DX =    0.0                 !
 ! R20   R(10,20)                1.0882         -DE/DX =    0.0                 !
 ! R21   R(10,21)                1.0977         -DE/DX =    0.0                 !
 ! R22   R(22,23)                1.0908         -DE/DX =    0.0                 !
 ! R23   R(22,24)                1.0889         -DE/DX =    0.0                 !
 ! R24   R(22,25)                1.5324         -DE/DX =    0.0                 !
 ! R25   R(25,26)                1.104          -DE/DX =    0.0                 !
 ! R26   R(25,27)                1.1037         -DE/DX =    0.0                 !
 ! R27   R(25,28)                1.4126         -DE/DX =    0.0                 !
 ! R28   R(28,29)                1.412          -DE/DX =    0.0                 !
 ! R29   R(29,30)                1.0924         -DE/DX =    0.0                 !
 ! R30   R(29,31)                1.1014         -DE/DX =    0.0                 !
 ! R31   R(29,32)                1.1015         -DE/DX =    0.0                 !
 ! A1    A(2,1,11)             107.1173         -DE/DX =    0.0                 !
 ! A2    A(2,1,12)             112.5002         -DE/DX =    0.0                 !
 ! A3    A(2,1,13)             111.3018         -DE/DX =    0.0                 !
 ! A4    A(11,1,12)            108.9957         -DE/DX =    0.0                 !
 ! A5    A(11,1,13)            109.1639         -DE/DX =    0.0                 !
 ! A6    A(12,1,13)            107.7094         -DE/DX =    0.0                 !
 ! A7    A(1,2,3)              120.5148         -DE/DX =    0.0                 !
 ! A8    A(1,2,4)              117.57           -DE/DX =    0.0                 !
 ! A9    A(3,2,4)              121.8602         -DE/DX =    0.0                 !
 ! A10   A(2,4,5)              115.8345         -DE/DX =   -0.0002              !
 ! A11   A(2,4,22)             122.2577         -DE/DX =    0.0006              !
 ! A12   A(5,4,22)             118.7728         -DE/DX =   -0.0001              !
 ! A13   A(4,5,6)              113.7218         -DE/DX =    0.0001              !
 ! A14   A(4,5,14)             105.9734         -DE/DX =   -0.0001              !
 ! A15   A(4,5,15)             110.6112         -DE/DX =    0.0001              !
 ! A16   A(6,5,14)             110.6641         -DE/DX =   -0.0014              !
[...]
   D22        1.40299   0.00028   0.00311   0.01661   0.01972   1.42271
   D23        1.06843  -0.00140   0.00533   0.00056   0.00590   1.07433
   D24       -2.01998  -0.00267   0.00000   0.00000   0.00000  -2.01998
   D25       -0.95551  -0.00001   0.00905  -0.00121   0.00784  -0.94767
   D26        2.23927  -0.00127   0.00372  -0.00178   0.00194   2.24121
   D27       -3.01572   0.00042   0.00947   0.00003   0.00950  -3.00622
   D28        0.17905  -0.00085   0.00414  -0.00053   0.00360   0.18266
   D29       -0.16330   0.00068   0.01048   0.00170   0.01218  -0.15113
   D30       -3.08980   0.00066   0.00421  -0.00118   0.00303  -3.08677
   D31        3.03341  -0.00066   0.00496   0.00102   0.00599   3.03940
   D32        0.10691  -0.00068  -0.00130  -0.00185  -0.00316   0.10376
   D33        0.42925  -0.00004  -0.00865  -0.03201  -0.04066   0.38859
   D34        2.50832  -0.00010  -0.00869  -0.03077  -0.03946   2.46886
   D35       -1.69843  -0.00004  -0.00842  -0.03091  -0.03933  -1.73776
   D36       -2.92113  -0.00001  -0.00258  -0.02905  -0.03163  -2.95276
   D37       -0.84206  -0.00008  -0.00261  -0.02781  -0.03042  -0.87248
   D38        1.23437  -0.00001  -0.00234  -0.02795  -0.03029   1.20408
   D39       -2.28557  -0.00003   0.00544   0.00603   0.01147  -2.27409
   D40       -0.18616  -0.00010   0.00506   0.00532   0.01038  -0.17578
   D41        1.90843  -0.00004   0.00521   0.00628   0.01150   1.91992
   D42        1.04446   0.00009   0.00002   0.00317   0.00318   1.04764
   D43       -3.13932   0.00002  -0.00037   0.00246   0.00209  -3.13723
   D44       -1.04474   0.00008  -0.00021   0.00342   0.00321  -1.04153
   D45        1.03016  -0.00003   0.00081   0.00274   0.00355   1.03371
   D46       -1.02887  -0.00004   0.00113   0.00306   0.00418  -1.02469
   D47       -3.13910  -0.00005   0.00106   0.00272   0.00377  -3.13533
   D48       -1.10332   0.00001   0.00027   0.00184   0.00211  -1.10122
   D49        3.12083   0.00000   0.00058   0.00216   0.00274   3.12357
   D50        1.01060  -0.00001   0.00051   0.00182   0.00233   1.01293
   D51       -3.11883   0.00005   0.00034   0.00285   0.00319  -3.11564
   D52        1.10532   0.00004   0.00065   0.00317   0.00382   1.10914
   D53       -1.00491   0.00003   0.00058   0.00283   0.00341  -1.00150
   D54       -3.14135   0.00006   0.00003   0.00285   0.00288  -3.13847
   D55       -1.03812   0.00003   0.00013   0.00352   0.00365  -1.03447
   D56        1.03327  -0.00001   0.00008   0.00255   0.00263   1.03590
   D57        3.13826   0.00001   0.00008   0.00091   0.00099   3.13925
   D58       -1.06334   0.00000   0.00014   0.00082   0.00096  -1.06239
   D59        1.05587   0.00004   0.00000   0.00111   0.00111   1.05699
         Item               Value     Threshold  Converged?
 Maximum Force            0.001207     0.000450     NO 
 RMS     Force            0.000207     0.000300     YES
 Maximum Displacement     0.087912     0.001800     NO 
 RMS     Displacement     0.025441     0.001200     NO 
 Predicted change in Energy=-1.849669D-05
 GradGradGradGradGradGradGradGradGradGradGradGradGradGradGradGradGradGrad

                          Input orientation:                          
 ---------------------------------------------------------------------
 Center     Atomic      Atomic             Coordinates (Angstroms)
 Number     Number       Type             X           Y           Z
 ---------------------------------------------------------------------
      1          6           0        2.534205    2.452990    0.757031
      2          6           0        1.128739    2.443940    0.171079
      3          8           0        0.634304    3.467257   -0.289985
      4          7           0        0.428504    1.253495    0.198603
      5          6           0       -0.930355    1.285895   -0.350661
      6          6           0       -1.884566    0.420119    0.481185
      7          8           0       -2.063301    0.715404    1.658934
      8          7           0       -2.471116   -0.690440   -0.085145
      9          6           0       -2.435149   -1.081136   -1.486732
     10          6           0       -3.425647   -1.443110    0.723188
     11          1           0        2.936890    3.454010    0.607284
     12          1           0        3.195543    1.725785    0.276464
     13          1           0        2.518363    2.234007    1.829738
     14          1           0       -1.272278    2.318367   -0.263769
     15          1           0       -0.923589    1.045740   -1.417840
     16          1           0       -1.591715   -0.638020   -2.010495
     17          1           0       -2.335135   -2.170136   -1.553766
     18          1           0       -3.359112   -0.796623   -2.009717
     19          1           0       -3.175999   -2.509882    0.699012
     20          1           0       -3.378460   -1.074575    1.745523
     21          1           0       -4.446209   -1.318494    0.338020
     22          6           0        1.010896   -0.018541    0.608193
     23          1           0        1.799782    0.155649    1.340677
     24          1           0        0.252107   -0.618480    1.116953
     25          6           0        1.591768   -0.821088   -0.559687
     26          1           0        2.379131   -0.238172   -1.067696
     27          1           0        0.811927   -1.030625   -1.312152
     28          8           0        2.110804   -2.022345   -0.029827
     29          6           0        2.684714   -2.858568   -1.013232
     30          1           0        3.055092   -3.751263   -0.504360
     31          1           0        1.946895   -3.162005   -1.772654
     32          1           0        3.525127   -2.367303   -1.527848
 ---------------------------------------------------------------------
                    Distance matrix (angstroms):
                    1          2          3          4          5
     1  C    0.000000
     2  C    1.522746   0.000000
     3  O    2.394703   1.226468   0.000000
     4  N    2.486887   1.381393   2.276360   0.000000
     5  C    3.819983   2.419328   2.685178   1.466028   0.000000
     6  C    4.871775   3.643079   4.027960   2.474805   1.533641
     7  O    4.996969   3.923095   4.318339   2.937891   2.376447
     8  N    5.970230   4.780057   5.193461   3.502455   2.519989
     9  C    6.497615   5.279754   5.616193   4.060956   3.026202
    10  C    7.120434   6.013020   6.451467   4.733006   3.850597
    11  H    1.089321   2.116583   2.471269   3.361739   4.535853
    12  H    1.094139   2.190555   3.148577   2.808136   4.196406
    13  H    1.094946   2.174000   3.092541   2.826573   4.188879
    14  H    3.943282   2.443307   2.226139   2.059224   1.091082
    15  H    4.320504   2.948165   3.092383   2.117594   1.093889
    16  H    5.851218   4.653881   4.976808   3.541077   2.625623
    17  H    7.100954   6.021894   6.495761   4.736005   3.919823
    18  H    7.276405   5.949616   6.089789   4.840010   3.603916
    19  H    7.565705   6.584059   7.157005   5.235060   4.533503
    20  H    6.955605   5.930739   6.393263   4.722906   3.994875
    21  H    7.945177   6.727840   7.007811   5.513383   4.429261
    22  C    2.907076   2.503751   3.619301   1.457745   2.527728
    23  H    2.481491   2.656037   3.870936   2.095233   3.404662
    24  H    3.843363   3.322887   4.338063   2.092551   2.679318
    25  C    3.652605   3.377695   4.402202   2.496413   3.293049
    26  H    3.255154   3.208078   4.168868   2.762883   3.713437
    27  H    4.402651   3.791167   4.615985   2.765248   3.053895
    28  O    4.563665   4.577392   5.690647   3.689639   4.505112
    29  C    5.600815   5.651570   6.689046   4.844387   5.539341
    30  H    6.352573   6.522851   7.616640   5.695675   6.424980
    31  H    6.186469   5.989498   6.918693   5.068333   5.484929
    32  H    5.425664   5.637117   6.628066   5.067532   5.880727
                    6          7          8          9         10
     6  C    0.000000
     7  O    1.227286   0.000000
     8  N    1.377720   2.276955   0.000000
     9  C    2.535667   3.641571   1.455466   0.000000
    10  C    2.430045   2.718600   1.459809   2.448644   0.000000
    11  H    5.697967   5.797227   6.848537   7.335616   8.029763
    12  H    5.249208   5.530600   6.170894   6.533939   7.354020
    13  H    4.949199   4.829801   6.092132   6.821028   7.076503
    14  H    2.129131   2.625261   3.243769   3.795329   4.445198
    15  H    2.218372   3.297667   2.680529   2.610203   4.127792
    16  H    2.722846   3.939398   2.117325   1.087226   3.388879
    17  H    3.324674   4.326855   2.089219   1.095635   2.627224
    18  H    3.139959   4.174249   2.122214   1.099168   2.809118
    19  H    3.209385   3.544294   2.102886   2.714341   1.095862
    20  H    2.462596   2.222873   2.078985   3.367098   1.087756
    21  H    3.099240   3.399971   2.115304   2.725879   1.097921
    22  C    2.931255   3.330679   3.613388   4.170497   4.661066
    23  H    3.792504   3.916379   4.581419   5.240087   5.499312
    24  H    2.459320   2.726555   2.977609   3.770221   3.789583
    25  C    3.835219   4.543415   4.092589   4.140423   5.216046
    26  H    4.583829   5.298964   4.969391   4.905453   6.193108
    27  H    3.548491   4.488085   3.521312   3.252158   4.719087
    28  O    4.710599   5.269757   4.771899   4.865607   5.617369
    29  C    5.819054   6.515934   5.669630   5.440263   6.508087
    30  H    6.540026   7.129439   6.331141   6.183638   6.988163
    31  H    5.708896   6.549181   5.336210   4.859432   6.168310
    32  H    6.408644   7.133666   6.391259   6.097607   7.364412
                   11         12         13         14         15
    11  H    0.000000
    12  H    1.778512   0.000000
    13  H    1.777066   1.769046   0.000000
    14  H    4.445843   4.539211   4.331149   0.000000
    15  H    4.980381   4.505594   4.879116   1.753010   0.000000
    16  H    6.641215   5.808235   6.315748   3.448668   1.905959
    17  H    8.005960   7.008305   7.375704   4.789615   3.514654
    18  H    8.034689   7.385978   7.646624   4.135985   3.110690
    19  H    8.540716   7.662635   7.497252   5.278550   4.711354
    20  H    7.854127   7.295044   6.762124   4.470493   4.530893
    21  H    8.795422   8.226044   7.959318   4.864437   4.591459
    22  C    3.970902   2.815209   2.972979   3.381471   2.996621
    23  H    3.565118   2.355000   2.252801   4.085236   3.977239
    24  H    4.904385   3.855621   3.712231   3.585416   3.252239
    25  C    4.631159   3.123748   3.987673   4.259872   3.247845
    26  H    4.092537   2.516033   3.811322   4.529346   3.560756
    27  H    5.320870   3.975314   4.841613   4.081515   2.708224
    28  O    5.574836   3.913943   4.662684   5.508335   4.532909
    29  C    6.522140   4.789630   5.834764   6.558974   5.331714
    30  H    7.291480   5.534209   6.446669   7.458178   6.298856
    31  H    7.100412   5.445043   6.513121   6.532556   5.105946
    32  H    6.228363   4.485258   5.784377   6.824112   5.608212
                   16         17         18         19         20
    16  H    0.000000
    17  H    1.763137   0.000000
    18  H    1.774500   1.772839   0.000000
    19  H    3.654483   2.428474   3.210296   0.000000
    20  H    4.182189   3.629613   3.765563   1.787815   0.000000
    21  H    3.758550   2.959862   2.639318   1.778526   1.783437
    22  C    3.743643   4.527621   5.153236   4.872896   4.655660
    23  H    4.833479   5.557392   6.224641   5.681125   5.337746
    24  H    3.630563   4.029168   4.780032   3.937510   3.712699
    25  C    3.503273   4.269507   5.158915   5.212288   5.484653
    26  H    4.100776   5.117914   5.841807   6.256308   6.462478
    27  H    2.533637   3.355720   4.235436   4.704947   5.187547
    28  O    4.421317   4.702191   5.944943   5.359028   5.846551
    29  C    4.920693   5.095586   6.463160   6.115662   6.896045
    30  H    5.792542   5.714522   7.220666   6.466500   7.322378
    31  H    4.353025   4.400852   5.814202   5.725246   6.715232
    32  H    5.422679   5.863635   7.077569   7.062883   7.748911
                   21         22         23         24         25
    21  H    0.000000
    22  C    5.616304   0.000000
    23  H    6.495446   1.090512   0.000000
    24  H    4.813619   1.092943   1.744886   0.000000
    25  C    6.124578   1.531482   2.146781   2.155659   0.000000
    26  H    7.051836   2.174605   2.508187   3.072711   1.103542
    27  H    5.518507   2.179822   3.069300   2.526620   1.103749
    28  O    6.604932   2.373204   2.592041   2.596286   1.411796
    29  C    7.419419   3.673750   3.925493   3.933607   2.356175
    30  H    7.930793   4.398832   4.499325   4.505520   3.275714
    31  H    6.980348   4.052886   4.552065   4.206145   2.660318
    32  H    8.253706   4.049779   4.191723   4.556975   2.658194
                   26         27         28         29         30
    26  H    0.000000
    27  H    1.773096   0.000000
    28  O    2.081453   2.077245   0.000000
    29  C    2.638716   2.634020   1.412702   0.000000
    30  H    3.621613   3.617484   2.026331   1.092262   0.000000
    31  H    3.038518   2.458250   2.088812   1.101441   1.784348
    32  H    2.461351   3.032275   2.088869   1.101120   1.784322
                   31         32
    31  H    0.000000
    32  H    1.783899   0.000000
 Stoichiometry    C9H18N2O3
 Framework group  C1[X(C9H18N2O3)]
 Deg. of freedom    90
 Full point group                 C1      NOp   1
 Largest Abelian subgroup         C1      NOp   1
 Largest concise Abelian subgroup C1      NOp   1
                         Standard orientation:                         
 ---------------------------------------------------------------------
 Center     Atomic      Atomic             Coordinates (Angstroms)
 Number     Number       Type             X           Y           Z
 ---------------------------------------------------------------------
      1          6           0       -3.118227    1.625311   -0.473598
      2          6           0       -1.783024    1.875425    0.214465
      3          8           0       -1.612441    2.870487    0.910869
      4          7           0       -0.771606    0.957459    0.008018
      5          6           0        0.507982    1.241570    0.664657
      6          6           0        1.689157    0.871000   -0.240637
      7          8           0        1.804097    1.450810   -1.316203
      8          7           0        2.554727   -0.131360    0.139069
      9          6           0        2.598489   -0.809775    1.426011
     10          6           0        3.703357   -0.400907   -0.720603
     11          1           0       -3.793390    2.420883   -0.160806
     12          1           0       -3.555647    0.658900   -0.205542
     13          1           0       -3.015022    1.655846   -1.563242
     14          1           0        0.542860    2.321652    0.815209
     15          1           0        0.544691    0.784394    1.657750
     16          1           0        1.651445   -0.738522    1.955247
     17          1           0        2.811990   -1.872284    1.265051
     18          1           0        3.390056   -0.402841    2.070989
     19          1           0        3.768170   -1.474329   -0.931501
     20          1           0        3.577236    0.152136   -1.648746
     21          1           0        4.636402   -0.087639   -0.234064
     22          6           0       -0.956672   -0.305911   -0.695308
     23          1           0       -1.744805   -0.200730   -1.441631
     24          1           0       -0.046307   -0.550567   -1.248392
     25          6           0       -1.311830   -1.469177    0.235343
     26          1           0       -2.244693   -1.248139    0.781890
     27          1           0       -0.522745   -1.614274    0.993335
     28          8           0       -1.453544   -2.622906   -0.565902
     29          6           0       -1.788031   -3.776028    0.178514
     30          1           0       -1.875913   -4.604367   -0.528004
     31          1           0       -1.012563   -4.022144    0.920975
     32          1           0       -2.745710   -3.656848    0.708712
 ---------------------------------------------------------------------
 Rotational constants (GHZ):      0.6366234      0.5141374      0.3284803
 Standard basis: 6-31G(d,p) (6D, 7F)
 There are   300 symmetry adapted basis functions of A   symmetry.
 Integral buffers will be    131072 words long.
 Raffenetti 2 integral format.
 Two-electron integral symmetry is turned on.
   300 basis functions,   518 primitive gaussians,   300 cartesian basis functions
    55 alpha electrons       55 beta electrons
       nuclear repulsion energy       971.8622680436 Hartrees.
 NAtoms=   32 NActive=   32 NUniq=   32 SFac= 1.00D+00 NAtFMM=   60 NAOKFM=F Big=F
 One-electron integrals computed using PRISM.
 NBasis=   300 RedAO= T  NBF=   300
 NBsUse=   300 1.00D-06 NBFU=   300
 Initial guess read from the read-write file.
 B after Tr=     0.000000    0.000000    0.000000
         Rot=    1.000000    0.000000    0.000000    0.000000 Ang=   0.00 deg.
 Initial guess orbital symmetries:
       Occupied  (A) (A) (A) (A) (A) (A) (A) (A) (A) (A) (A) (A)
                 (A) (A) (A) (A) (A) (A) (A) (A) (A) (A) (A) (A)
                 (A) (A) (A) (A) (A) (A) (A) (A) (A) (A) (A) (A)
                 (A) (A) (A) (A) (A) (A) (A) (A) (A) (A) (A) (A)
                 (A) (A) (A) (A) (A) (A) (A)
       Virtual   (A) (A) (A) (A) (A) (A) (A) (A) (A) (A) (A) (A)
                 (A) (A) (A) (A) (A) (A) (A) (A) (A) (A) (A) (A)
                 (A) (A) (A) (A) (A) (A) (A) (A) (A) (A) (A) (A)
                 (A) (A) (A) (A) (A) (A) (A) (A) (A) (A) (A) (A)
                 (A) (A) (A) (A) (A) (A) (A) (A) (A) (A) (A) (A)
                 (A) (A) (A) (A) (A) (A) (A) (A) (A) (A) (A) (A)
                 (A) (A) (A) (A) (A) (A) (A) (A) (A) (A) (A) (A)
                 (A) (A) (A) (A) (A) (A) (A) (A) (A) (A) (A) (A)
                 (A) (A) (A) (A) (A) (A) (A) (A) (A) (A) (A) (A)
                 (A) (A) (A) (A) (A) (A) (A) (A) (A) (A) (A) (A)
                 (A) (A) (A) (A) (A) (A) (A) (A) (A) (A) (A) (A)
                 (A) (A) (A) (A) (A) (A) (A) (A) (A) (A) (A) (A)
                 (A) (A) (A) (A) (A) (A) (A) (A) (A) (A) (A) (A)
                 (A) (A) (A) (A) (A) (A) (A) (A) (A) (A) (A) (A)
                 (A) (A) (A) (A) (A) (A) (A) (A) (A) (A) (A) (A)
                 (A) (A) (A) (A) (A) (A) (A) (A) (A) (A) (A) (A)
                 (A) (A) (A) (A) (A) (A) (A) (A) (A) (A) (A) (A)
                 (A) (A) (A) (A) (A) (A) (A) (A) (A) (A) (A) (A)
                 (A) (A) (A) (A) (A) (A) (A) (A) (A) (A) (A) (A)
                 (A) (A) (A) (A) (A) (A) (A) (A) (A) (A) (A) (A)
                 (A) (A) (A) (A) (A)
 Harris functional with IExCor=  402 diagonalized for initial guess.
 ExpMin= 1.61D-01 ExpMax= 5.48D+03 ExpMxC= 8.25D+02 IAcc=1 IRadAn=         1 AccDes= 0.00D+00
 HarFok:  IExCor=  402 AccDes= 0.00D+00 IRadAn=         1 IDoV= 1
 ScaDFX=  1.000000  1.000000  1.000000  1.000000
 FoFCou: FMM=F IPFlag=           0 FMFlag=      100000 FMFlg1=           0
         NFxFlg=           0 DoJE=T BraDBF=F KetDBF=T FulRan=T
         Omega=  0.000000  0.000000  1.000000  0.000000  0.000000 ICntrl=     500 IOpCl=  0
         NMat0=    1 NMatS0=    1 NMatT0=    0 NMatD0=    1 NMtDS0=    0 NMtDT0=    0
         I1Cent=           4 NGrid=           0.
 Petite list used in FoFCou.
 Requested convergence on RMS density matrix=1.00D-08 within 128 cycles.
 Requested convergence on MAX density matrix=1.00D-06.
 Requested convergence on             energy=1.00D-06.
 No special actions if energy rises.
 Keep R1 ints in memory in canonical form, NReq=1033484025.
 Integral accuracy reduced to 1.0D-05 until final iterations.
 Initial convergence to 1.0D-05 achieved.  Increase integral accuracy.
