 Entering Gaussian System, Link 0=/data/opt/apps/g09-C01/g09
 Initial command:
 /data/opt/apps/g09-C01/l1.exe /tmp/g09-tuu61186-1150917c21e64fea8x/Gau-1151056.inp -scrdir=/tmp/g09-tuu61186-1150917c21e64fea8x/
 Entering Link 1 = /data/opt/apps/g09-C01/l1.exe PID=   1151066.
  
 Copyright (c) 1988,1990,1992,1993,1995,1998,2003,2009,2011,
            Gaussian, Inc.  All Rights Reserved.
  
 This is part of the Gaussian(R) 09 program.  It is based on
 the Gaussian(R) 03 system (copyright 2003, Gaussian, Inc.),
 the Gaussian(R) 98 system (copyright 1998, Gaussian, Inc.),
 the Gaussian(R) 94 system (copyright 1995, Gaussian, Inc.),
 the Gaussian 92(TM) system (copyright 1992, Gaussian, Inc.),
 the Gaussian 90(TM) system (copyright 1990, Gaussian, Inc.),
 the Gaussian 88(TM) system (copyright 1988, Gaussian, Inc.),
 the Gaussian 86(TM) system (copyright 1986, Carnegie Mellon
 University), and the Gaussian 82(TM) system (copyright 1983,
 Carnegie Mellon University). Gaussian is a federally registered
 trademark of Gaussian, Inc.
  
 This software contains proprietary and confidential information,
 including trade secrets, belonging to Gaussian, Inc.
  
 This software is provided under written license and may be
 used, copied, transmitted, or stored only in accord with that
 written license.
  
 The following legend is applicable only to US Government
 contracts under FAR:
  
                    RESTRICTED RIGHTS LEGEND
  
 Use, reproduction and disclosure by the US Government is
 subject to restrictions as set forth in subparagraphs (a)
 and (c) of the Commercial Computer Software - Restricted
 Rights clause in FAR 52.227-19.
  
 Gaussian, Inc.
 340 Quinnipiac St., Bldg. 40, Wallingford CT 06492
  
  
 ---------------------------------------------------------------
 Warning -- This program may not be used in any manner that
 competes with the business of Gaussian, Inc. or will provide
 assistance to any competitor of Gaussian, Inc.  The licensee
 of this program is prohibited from giving any competitor of
 Gaussian, Inc. access to this program.  By using this program,
 the user acknowledges that Gaussian, Inc. is engaged in the
 business of creating and licensing software in the field of
 computational chemistry and represents and warrants to the
 licensee that it is not a competitor of Gaussian, Inc. and that
 it will not use this program in any manner prohibited above.
 ---------------------------------------------------------------
  

 Cite this work as:
 Gaussian 09, Revision C.01,
 M. J. Frisch, G. W. Trucks, H. B. Schlegel, G. E. Scuseria, 
 M. A. Robb, J. R. Cheeseman, G. Scalmani, V. Barone, B. Mennucci, 
 G. A. Petersson, H. Nakatsuji, M. Caricato, X. Li, H. P. Hratchian, 
 A. F. Izmaylov, J. Bloino, G. Zheng, J. L. Sonnenberg, M. Hada, 
 M. Ehara, K. Toyota, R. Fukuda, J. Hasegawa, M. Ishida, T. Nakajima, 
 Y. Honda, O. Kitao, H. Nakai, T. Vreven, J. A. Montgomery, Jr., 
 J. E. Peralta, F. Ogliaro, M. Bearpark, J. J. Heyd, E. Brothers, 
 K. N. Kudin, V. N. Staroverov, T. Keith, R. Kobayashi, J. Normand, 
 K. Raghavachari, A. Rendell, J. C. Burant, S. S. Iyengar, J. Tomasi, 
 M. Cossi, N. Rega, J. M. Millam, M. Klene, J. E. Knox, J. B. Cross, 
 V. Bakken, C. Adamo, J. Jaramillo, R. Gomperts, R. E. Stratmann, 
 O. Yazyev, A. J. Austin, R. Cammi, C. Pomelli, J. W. Ochterski, 
 R. L. Martin, K. Morokuma, V. G. Zakrzewski, G. A. Voth, 
 P. Salvador, J. J. Dannenberg, S. Dapprich, A. D. Daniels, 
 O. Farkas, J. B. Foresman, J. V. Ortiz, J. Cioslowski, 
 and D. J. Fox, Gaussian, Inc., Wallingford CT, 2010.
 
 ******************************************
 Gaussian 09:  EM64L-G09RevC.01 23-Sep-2011
                24-Apr-2026 
 ******************************************
 %nprocshared=8
 Will use up to    8 processors via shared memory.
 %mem=14GB
 -----------------------------------
 # opt=modredundant b3lyp/6-31g(d,p)
 -----------------------------------
 1/14=-1,18=120,19=15,26=3,38=1/1,3;
 2/9=110,12=2,17=6,18=5,40=1/2;
 3/5=1,6=6,7=101,11=2,16=1,25=1,30=1,71=1,74=-5/1,2,3;
 4//1;
 5/5=2,38=5/2;
 6/7=2,8=2,9=2,10=2,28=1/1;
 7//1,2,3,16;
 1/14=-1,18=20,19=15/3(2);
 2/9=110/2;
 99//99;
 2/9=110/2;
 3/5=1,6=6,7=101,11=2,16=1,25=1,30=1,71=1,74=-5/1,2,3;
 4/5=5,16=3/1;
 5/5=2,38=5/2;
 7//1,2,3,16;
 1/14=-1,18=20,19=15/3(-5);
 2/9=110/2;
 6/7=2,8=2,9=2,10=2,19=2,28=1/1;
 99/9=1/99;
 ---------------
 QM dihedral opt
 ---------------
 Charge =  0 Multiplicity = 1
 Symbolic Z-Matrix:
 C                     0.80759   3.04876  -0.72931 
 C                    -0.19429   2.13061  -0.04475 
 O                    -1.39208   2.39494  -0.03118 
 N                     0.26993   0.97418   0.54813 
 C                    -0.69893   0.20695   1.3351 
 C                    -1.78481  -0.74247   0.77035 
 O                    -2.45831  -1.27144   1.65291 
 N                    -1.98373  -1.0277   -0.5545 
 C                    -1.38951  -0.35165  -1.69995 
 C                    -3.1265   -1.87563  -0.88785 
 H                     0.23717   3.83135  -1.22834 
 H                     1.41994   2.5227   -1.46864 
 H                     1.48494   3.5156   -0.00639 
 H                    -0.13886  -0.42083   2.03155 
 H                    -1.28577   0.90809   1.93472 
 H                    -0.38793  -0.00391  -1.47092 
 H                    -1.32071  -1.06665  -2.52621 
 H                    -1.99511   0.50218  -2.0266 
 H                    -2.82089  -2.63783  -1.61307 
 H                    -3.48798  -2.34998   0.02144 
 H                    -3.93637  -1.28077  -1.33044 
 C                     1.68157   0.62522   0.69563 
 H                     2.30743   1.45435   0.36715 
 H                     1.91087   0.4573    1.75513 
 C                     2.07794  -0.6291   -0.08636 
 H                     1.94706  -0.46104  -1.16927 
 H                     1.43093  -1.47811   0.19151 
 O                     3.42817  -0.89755   0.22355 
 C                     3.92572  -2.05305  -0.4218 
 H                     4.96622  -2.17305  -0.11249 
 H                     3.36204  -2.95404  -0.13524 
 H                     3.88874  -1.95622  -1.51795 
 
 The following ModRedundant input section has been read:
 D       2       4       5       6 F                                           
 D       4       5       6       8 S  36 10.000                                

 GradGradGradGradGradGradGradGradGradGradGradGradGradGradGradGradGradGrad
 Berny optimization.
 Initialization pass.
                           ----------------------------
                           !    Initial Parameters    !
                           ! (Angstroms and Degrees)  !
 --------------------------                            --------------------------
 ! Name  Definition              Value          Derivative Info.                !
 --------------------------------------------------------------------------------
 ! R1    R(1,2)                  1.5216         estimate D2E/DX2                !
 ! R2    R(1,11)                 1.0894         estimate D2E/DX2                !
 ! R3    R(1,12)                 1.0947         estimate D2E/DX2                !
 ! R4    R(1,13)                 1.0952         estimate D2E/DX2                !
 ! R5    R(2,3)                  1.2267         estimate D2E/DX2                !
 ! R6    R(2,4)                  1.38           estimate D2E/DX2                !
 ! R7    R(4,5)                  1.4651         estimate D2E/DX2                !
 ! R8    R(4,22)                 1.4616         estimate D2E/DX2                !
 ! R9    R(5,6)                  1.549          estimate D2E/DX2                !
 ! R10   R(5,14)                 1.0922         estimate D2E/DX2                !
 ! R11   R(5,15)                 1.0934         estimate D2E/DX2                !
 ! R12   R(6,7)                  1.2298         estimate D2E/DX2                !
 ! R13   R(6,8)                  1.3697         estimate D2E/DX2                !
 ! R14   R(8,9)                  1.4568         estimate D2E/DX2                !
 ! R15   R(8,10)                 1.4615         estimate D2E/DX2                !
 ! R16   R(9,16)                 1.0847         estimate D2E/DX2                !
 ! R17   R(9,17)                 1.0948         estimate D2E/DX2                !
 ! R18   R(9,18)                 1.0966         estimate D2E/DX2                !
 ! R19   R(10,19)                1.0956         estimate D2E/DX2                !
 ! R20   R(10,20)                1.0874         estimate D2E/DX2                !
 ! R21   R(10,21)                1.098          estimate D2E/DX2                !
 ! R22   R(22,23)                1.0895         estimate D2E/DX2                !
 ! R23   R(22,24)                1.097          estimate D2E/DX2                !
 ! R24   R(22,25)                1.5303         estimate D2E/DX2                !
 ! R25   R(25,26)                1.1037         estimate D2E/DX2                !
 ! R26   R(25,27)                1.103          estimate D2E/DX2                !
 ! R27   R(25,28)                1.4111         estimate D2E/DX2                !
 ! R28   R(28,29)                1.4139         estimate D2E/DX2                !
 ! R29   R(29,30)                1.0921         estimate D2E/DX2                !
 ! R30   R(29,31)                1.1007         estimate D2E/DX2                !
 ! R31   R(29,32)                1.101          estimate D2E/DX2                !
 ! A1    A(2,1,11)             107.1444         estimate D2E/DX2                !
 ! A2    A(2,1,12)             112.4692         estimate D2E/DX2                !
 ! A3    A(2,1,13)             111.5601         estimate D2E/DX2                !
 ! A4    A(11,1,12)            109.1915         estimate D2E/DX2                !
 ! A5    A(11,1,13)            108.663          estimate D2E/DX2                !
 ! A6    A(12,1,13)            107.7404         estimate D2E/DX2                !
 ! A7    A(1,2,3)              121.1889         estimate D2E/DX2                !
 ! A8    A(1,2,4)              118.5185         estimate D2E/DX2                !
 ! A9    A(3,2,4)              120.285          estimate D2E/DX2                !
 ! A10   A(2,4,5)              116.5603         estimate D2E/DX2                !
 ! A11   A(2,4,22)             124.6342         estimate D2E/DX2                !
 ! A12   A(5,4,22)             117.3513         estimate D2E/DX2                !
 ! A13   A(4,5,6)              126.0638         estimate D2E/DX2                !
 ! A14   A(4,5,14)             107.7222         estimate D2E/DX2                !
 ! A15   A(4,5,15)             108.2815         estimate D2E/DX2                !
 ! A16   A(6,5,14)             103.8665         estimate D2E/DX2                !
 ! A17   A(6,5,15)             102.5172         estimate D2E/DX2                !
 ! A18   A(14,5,15)            107.1044         estimate D2E/DX2                !
 ! A19   A(5,6,7)              112.6998         estimate D2E/DX2                !
 ! A20   A(5,6,8)              125.5969         estimate D2E/DX2                !
 ! A21   A(7,6,8)              121.6714         estimate D2E/DX2                !
 ! A22   A(6,8,9)              127.2037         estimate D2E/DX2                !
 ! A23   A(6,8,10)             117.0636         estimate D2E/DX2                !
 ! A24   A(9,8,10)             114.1325         estimate D2E/DX2                !
 ! A25   A(8,9,16)             111.0639         estimate D2E/DX2                !
 ! A26   A(8,9,17)             108.4189         estimate D2E/DX2                !
 ! A27   A(8,9,18)             111.7335         estimate D2E/DX2                !
 ! A28   A(16,9,17)            108.1011         estimate D2E/DX2                !
 ! A29   A(16,9,18)            108.8585         estimate D2E/DX2                !
 ! A30   A(17,9,18)            108.5657         estimate D2E/DX2                !
 ! A31   A(8,10,19)            109.6639         estimate D2E/DX2                !
 ! A32   A(8,10,20)            108.8012         estimate D2E/DX2                !
 ! A33   A(8,10,21)            110.7524         estimate D2E/DX2                !
 ! A34   A(19,10,20)           110.0457         estimate D2E/DX2                !
 ! A35   A(19,10,21)           108.4108         estimate D2E/DX2                !
 ! A36   A(20,10,21)           109.1591         estimate D2E/DX2                !
 ! A37   A(4,22,23)            110.0404         estimate D2E/DX2                !
 ! A38   A(4,22,24)            109.6275         estimate D2E/DX2                !
 ! A39   A(4,22,25)            113.2213         estimate D2E/DX2                !
 ! A40   A(23,22,24)           106.7147         estimate D2E/DX2                !
 ! A41   A(23,22,25)           108.7181         estimate D2E/DX2                !
 ! A42   A(24,22,25)           108.2963         estimate D2E/DX2                !
 ! A43   A(22,25,26)           110.2342         estimate D2E/DX2                !
 ! A44   A(22,25,27)           110.5018         estimate D2E/DX2                !
 ! A45   A(22,25,28)           106.9502         estimate D2E/DX2                !
 ! A46   A(26,25,27)           107.1469         estimate D2E/DX2                !
 ! A47   A(26,25,28)           110.9731         estimate D2E/DX2                !
 ! A48   A(27,25,28)           111.0704         estimate D2E/DX2                !
 ! A49   A(25,28,29)           113.0752         estimate D2E/DX2                !
 ! A50   A(28,29,30)           107.2043         estimate D2E/DX2                !
 ! A51   A(28,29,31)           111.7091         estimate D2E/DX2                !
 ! A52   A(28,29,32)           111.759          estimate D2E/DX2                !
 ! A53   A(30,29,31)           108.9183         estimate D2E/DX2                !
 ! A54   A(30,29,32)           108.883          estimate D2E/DX2                !
 ! A55   A(31,29,32)           108.2984         estimate D2E/DX2                !
 ! D1    D(11,1,2,3)            -5.5323         estimate D2E/DX2                !
 ! D2    D(11,1,2,4)           173.4714         estimate D2E/DX2                !
 ! D3    D(12,1,2,3)          -125.523          estimate D2E/DX2                !
 ! D4    D(12,1,2,4)            53.4807         estimate D2E/DX2                !
 ! D5    D(13,1,2,3)           113.2816         estimate D2E/DX2                !
 ! D6    D(13,1,2,4)           -67.7147         estimate D2E/DX2                !
 ! D7    D(1,2,4,5)            172.6798         estimate D2E/DX2                !
 ! D8    D(1,2,4,22)             6.8501         estimate D2E/DX2                !
 ! D9    D(3,2,4,5)             -8.3072         estimate D2E/DX2                !
 ! D10   D(3,2,4,22)          -174.1369         estimate D2E/DX2                !
 ! D11   D(2,4,5,6)             78.67           Frozen                          !
 ! D12   D(2,4,5,14)          -158.3757         estimate D2E/DX2                !
 ! D13   D(2,4,5,15)           -42.8604         estimate D2E/DX2                !
 ! D14   D(22,4,5,6)          -114.4374         estimate D2E/DX2                !
 ! D15   D(22,4,5,14)            8.517          estimate D2E/DX2                !
 ! D16   D(22,4,5,15)          124.0323         estimate D2E/DX2                !
 ! D17   D(2,4,22,23)            5.9773         estimate D2E/DX2                !
 ! D18   D(2,4,22,24)          123.0495         estimate D2E/DX2                !
 ! D19   D(2,4,22,25)         -115.9072         estimate D2E/DX2                !
 ! D20   D(5,4,22,23)         -159.7505         estimate D2E/DX2                !
 ! D21   D(5,4,22,24)          -42.6783         estimate D2E/DX2                !
 ! D22   D(5,4,22,25)           78.365          estimate D2E/DX2                !
 ! D23   D(4,5,6,7)            179.3675         estimate D2E/DX2                !
 ! D24   D(4,5,6,8)              1.4036         Scan                            !
 ! D25   D(14,5,6,7)            54.7816         estimate D2E/DX2                !
 ! D26   D(14,5,6,8)          -123.1822         estimate D2E/DX2                !
 ! D27   D(15,5,6,7)           -56.6335         estimate D2E/DX2                !
 ! D28   D(15,5,6,8)           125.4026         estimate D2E/DX2                !
 ! D29   D(5,6,8,9)            -11.0399         estimate D2E/DX2                !
 ! D30   D(5,6,8,10)          -175.6828         estimate D2E/DX2                !
 ! D31   D(7,6,8,9)            171.1673         estimate D2E/DX2                !
 ! D32   D(7,6,8,10)             6.5244         estimate D2E/DX2                !
 ! D33   D(6,8,9,16)            33.1343         estimate D2E/DX2                !
 ! D34   D(6,8,9,17)           151.7662         estimate D2E/DX2                !
 ! D35   D(6,8,9,18)           -88.629          estimate D2E/DX2                !
 ! D36   D(10,8,9,16)         -161.842          estimate D2E/DX2                !
 ! D37   D(10,8,9,17)          -43.2101         estimate D2E/DX2                !
 ! D38   D(10,8,9,18)           76.3947         estimate D2E/DX2                !
 ! D39   D(6,8,10,19)         -134.8615         estimate D2E/DX2                !
 ! D40   D(6,8,10,20)          -14.4524         estimate D2E/DX2                !
 ! D41   D(6,8,10,21)          105.5308         estimate D2E/DX2                !
 ! D42   D(9,8,10,19)           58.5026         estimate D2E/DX2                !
 ! D43   D(9,8,10,20)          178.9117         estimate D2E/DX2                !
 ! D44   D(9,8,10,21)          -61.1051         estimate D2E/DX2                !
 ! D45   D(4,22,25,26)          63.3867         estimate D2E/DX2                !
 ! D46   D(4,22,25,27)         -54.8614         estimate D2E/DX2                !
 ! D47   D(4,22,25,28)        -175.8736         estimate D2E/DX2                !
 ! D48   D(23,22,25,26)        -59.2349         estimate D2E/DX2                !
 ! D49   D(23,22,25,27)       -177.483          estimate D2E/DX2                !
 ! D50   D(23,22,25,28)         61.5048         estimate D2E/DX2                !
 ! D51   D(24,22,25,26)       -174.8212         estimate D2E/DX2                !
 ! D52   D(24,22,25,27)         66.9307         estimate D2E/DX2                !
 ! D53   D(24,22,25,28)        -54.0815         estimate D2E/DX2                !
 ! D54   D(22,25,28,29)        179.1513         estimate D2E/DX2                !
 ! D55   D(26,25,28,29)        -60.5805         estimate D2E/DX2                !
 ! D56   D(27,25,28,29)         58.5007         estimate D2E/DX2                !
 ! D57   D(25,28,29,30)       -179.6564         estimate D2E/DX2                !
 ! D58   D(25,28,29,31)        -60.4084         estimate D2E/DX2                !
 ! D59   D(25,28,29,32)         61.1099         estimate D2E/DX2                !
 --------------------------------------------------------------------------------
 Trust Radius=3.00D-01 FncErr=1.00D-07 GrdErr=1.00D-06
 Number of optimizations in scan=  37
 Number of steps in this run=    155 maximum allowed number of steps=    192.
 GradGradGradGradGradGradGradGradGradGradGradGradGradGradGradGradGradGrad

                          Input orientation:                          
 ---------------------------------------------------------------------
 Center     Atomic      Atomic             Coordinates (Angstroms)
 Number     Number       Type             X           Y           Z
 ---------------------------------------------------------------------
      1          6           0        0.807590    3.048763   -0.729307
      2          6           0       -0.194291    2.130605   -0.044750
      3          8           0       -1.392084    2.394943   -0.031180
      4          7           0        0.269929    0.974181    0.548131
      5          6           0       -0.698932    0.206954    1.335097
      6          6           0       -1.784806   -0.742470    0.770346
      7          8           0       -2.458310   -1.271437    1.652912
      8          7           0       -1.983732   -1.027695   -0.554501
      9          6           0       -1.389506   -0.351646   -1.699946
     10          6           0       -3.126496   -1.875632   -0.887846
     11          1           0        0.237172    3.831349   -1.228339
     12          1           0        1.419940    2.522704   -1.468641
     13          1           0        1.484939    3.515604   -0.006385
     14          1           0       -0.138857   -0.420830    2.031546
     15          1           0       -1.285769    0.908087    1.934723
     16          1           0       -0.387931   -0.003907   -1.470919
     17          1           0       -1.320709   -1.066650   -2.526206
     18          1           0       -1.995108    0.502175   -2.026597
     19          1           0       -2.820890   -2.637828   -1.613067
     20          1           0       -3.487979   -2.349983    0.021444
     21          1           0       -3.936367   -1.280766   -1.330438
     22          6           0        1.681568    0.625218    0.695625
     23          1           0        2.307425    1.454350    0.367150
     24          1           0        1.910871    0.457301    1.755132
     25          6           0        2.077936   -0.629100   -0.086355
     26          1           0        1.947056   -0.461044   -1.169271
     27          1           0        1.430929   -1.478112    0.191510
     28          8           0        3.428169   -0.897552    0.223553
     29          6           0        3.925721   -2.053053   -0.421804
     30          1           0        4.966216   -2.173050   -0.112487
     31          1           0        3.362039   -2.954039   -0.135244
     32          1           0        3.888738   -1.956217   -1.517945
 ---------------------------------------------------------------------
                    Distance matrix (angstroms):
                    1          2          3          4          5
     1  C    0.000000
     2  C    1.521643   0.000000
     3  O    2.398630   1.226689   0.000000
     4  N    2.494958   1.379973   2.261958   0.000000
     5  C    3.821943   2.420552   2.671043   1.465143   0.000000
     6  C    4.831452   3.383590   3.261907   2.686672   1.549023
     7  O    5.916519   4.425125   4.173170   3.702247   2.319926
     8  N    4.943637   3.665625   3.512601   3.209718   2.597239
     9  C    4.163190   3.213998   3.213804   3.092797   3.162343
    10  C    6.304906   5.035730   4.688270   4.660383   3.895088
    11  H    1.089427   2.116500   2.480106   3.364569   4.536930
    12  H    1.094680   2.187910   3.160711   2.790666   4.208713
    13  H    1.095152   2.177041   3.087678   2.870987   4.185216
    14  H    4.533889   3.289969   3.708638   2.076940   1.092171
    15  H    4.007705   2.569861   2.467148   2.084994   1.093397
    16  H    3.361258   2.574412   2.972483   2.337948   2.831062
    17  H    4.969419   4.201057   4.267655   4.018292   4.113190
    18  H    4.002897   3.134078   2.815652   3.461561   3.614999
    19  H    6.803250   5.665386   5.465587   5.222121   4.613801
    20  H    6.939885   5.561334   5.187472   5.044734   4.005296
    21  H    6.450683   5.224326   4.655350   5.129009   4.449649
    22  C    2.944119   2.516583   3.620429   1.461593   2.500130
    23  H    2.448239   2.624036   3.837935   2.101120   3.395747
    24  H    3.755708   3.235928   4.225503   2.101596   2.655217
    25  C    3.943836   3.575013   4.603142   2.498394   3.229630
    26  H    3.716275   3.544934   4.538917   2.796801   3.703962
    27  H    4.661443   3.964845   4.797869   2.736575   2.946786
    28  O    4.832057   4.729053   5.842966   3.685541   4.414570
    29  C    5.987138   5.883848   6.943796   4.844557   5.438911
    30  H    6.703877   6.719886   7.829505   5.691800   6.312988
    31  H    6.550706   6.205584   7.157103   5.045697   5.352127
    32  H    5.930029   5.961841   7.002153   5.094279   5.819439
                    6          7          8          9         10
     6  C    0.000000
     7  O    1.229771   0.000000
     8  N    1.369724   2.270970   0.000000
     9  C    2.532064   3.637309   1.456774   0.000000
    10  C    2.415324   2.695733   1.461515   2.449321   0.000000
    11  H    5.385439   6.450245   5.384866   4.512864   6.633237
    12  H    5.093606   6.259427   5.002596   4.025963   6.352382
    13  H    5.424550   6.420143   5.742271   5.107466   7.148967
    14  H    2.098386   2.499352   3.234113   3.936107   4.423266
    15  H    2.080661   2.490902   3.229650   3.848182   4.370842
    16  H    2.742263   3.956188   2.105836   1.084679   3.367947
    17  H    3.344807   4.336024   2.080562   1.094838   2.568957
    18  H    3.068592   4.110844   2.123134   1.096570   2.868930
    19  H    3.216599   3.558807   2.100934   2.698710   1.095574
    20  H    2.458811   2.210242   2.083967   3.370478   1.087422
    21  H    3.054877   3.329432   2.116343   2.736111   1.098018
    22  C    3.727184   4.653202   4.210625   4.015535   5.646159
    23  H    4.662075   5.638735   5.042223   4.604542   6.495482
    24  H    4.008401   4.699865   4.765244   4.846075   6.148412
    25  C    3.958228   4.900528   4.107942   3.834555   5.411316
    26  H    4.215223   5.294214   4.018722   3.380271   5.274580
    27  H    3.349205   4.159879   3.524105   3.577902   4.700336
    28  O    5.243867   6.069060   5.469093   5.216115   6.719783
    29  C    5.979044   6.758049   5.999217   5.725388   7.069826
    30  H    6.957173   7.684603   7.057549   6.799466   8.135209
    31  H    5.674605   6.317049   5.697705   5.638965   6.620458
    32  H    6.236871   7.127992   6.022979   5.519749   7.043935
                   11         12         13         14         15
    11  H    0.000000
    12  H    1.780235   0.000000
    13  H    1.774764   1.768691   0.000000
    14  H    5.371152   4.831723   4.720740   0.000000
    15  H    4.568344   4.637967   4.271284   1.758068   0.000000
    16  H    3.893429   3.106794   4.247288   3.535976   3.638165
    17  H    5.301117   4.638218   5.934493   4.752574   4.878596
    18  H    4.087015   4.007044   5.027200   4.556987   4.044748
    19  H    7.165892   6.681062   7.680255   5.039006   5.245658
    20  H    7.324450   7.074680   7.689980   4.356462   4.373258
    21  H    6.600195   6.570807   7.358590   5.144269   4.741099
    22  C    4.008390   2.890147   2.980908   2.488543   3.228075
    23  H    3.532939   2.301986   2.250507   3.502972   3.958122
    24  H    4.804848   3.860002   3.554937   2.246977   3.233260
    25  C    4.958643   3.503932   4.187674   3.072955   4.214524
    26  H    4.620804   3.044705   4.168883   3.820717   4.686198
    27  H    5.624180   4.331599   4.997927   2.639660   4.014123
    28  O    5.886676   4.312152   4.827521   4.027378   5.330070
    29  C    6.991572   5.320936   6.094254   5.020346   6.440590
    30  H    7.724104   6.038653   6.670182   5.807661   7.264419
    31  H    7.549910   5.961913   6.737684   4.834087   6.387715
    32  H    6.849360   5.114502   6.164729   5.583710   6.848407
                   16         17         18         19         20
    16  H    0.000000
    17  H    1.764406   0.000000
    18  H    1.774236   1.779223   0.000000
    19  H    3.588459   2.356473   3.273002   0.000000
    20  H    4.164315   3.582530   3.815487   1.788711   0.000000
    21  H    3.773791   2.883986   2.726170   1.779265   1.780972
    22  C    3.061460   4.717656   4.576415   6.020769   6.002546
    23  H    3.573507   5.281127   5.014823   6.853232   6.941122
    24  H    3.988058   5.576324   5.436926   6.581349   6.327250
    25  C    2.896271   4.206556   4.651237   5.510384   5.826875
    26  H    2.398360   3.589752   4.147705   5.260100   5.875840
    27  H    2.871446   3.889318   4.536437   4.762290   4.998474
    28  O    4.269948   5.490138   6.036087   6.741845   7.069901
    29  C    4.889503   5.738164   6.645357   6.875888   7.432872
    30  H    5.934426   6.824631   7.699395   7.943978   8.457107
    31  H    4.954753   5.586328   6.649936   6.364948   6.878385
    32  H    4.701449   5.380173   6.397035   6.744831   7.545908
                   21         22         23         24         25
    21  H    0.000000
    22  C    6.268883   0.000000
    23  H    7.024785   1.089519   0.000000
    24  H    6.836067   1.096964   1.754382   0.000000
    25  C    6.176103   1.530331   2.144550   2.144587   0.000000
    26  H    5.942439   2.174462   2.481771   3.065420   1.103666
    27  H    5.582395   2.177372   3.065686   2.533985   1.103018
    28  O    7.536454   2.364803   2.609239   2.546282   1.411113
    29  C    7.952010   3.668515   3.942487   3.885942   2.356794
    30  H    9.029704   4.390018   4.522969   4.443184   3.275153
    31  H    7.582550   4.040471   4.560538   4.161328   2.656436
    32  H    7.856441   4.054047   4.205485   4.522174   2.662648
                   26         27         28         29         30
    26  H    0.000000
    27  H    1.775539   0.000000
    28  O    2.079470   2.080155   0.000000
    29  C    2.647322   2.632622   1.413940   0.000000
    30  H    3.628096   3.615744   2.026180   1.092111   0.000000
    31  H    3.047362   2.452410   2.088599   1.100741   1.784333
    32  H    2.475327   3.031773   2.089428   1.101031   1.784177
                   31         32
    31  H    0.000000
    32  H    1.784635   0.000000
 Stoichiometry    C9H18N2O3
 Framework group  C1[X(C9H18N2O3)]
 Deg. of freedom    90
 Full point group                 C1      NOp   1
 Largest Abelian subgroup         C1      NOp   1
 Largest concise Abelian subgroup C1      NOp   1
                         Standard orientation:                         
 ---------------------------------------------------------------------
 Center     Atomic      Atomic             Coordinates (Angstroms)
 Number     Number       Type             X           Y           Z
 ---------------------------------------------------------------------
      1          6           0       -0.807590    3.048763    0.729307
      2          6           0        0.194291    2.130605    0.044750
      3          8           0        1.392084    2.394943    0.031180
      4          7           0       -0.269929    0.974181   -0.548131
      5          6           0        0.698932    0.206954   -1.335097
      6          6           0        1.784806   -0.742470   -0.770346
      7          8           0        2.458310   -1.271437   -1.652912
      8          7           0        1.983732   -1.027695    0.554501
      9          6           0        1.389506   -0.351646    1.699946
     10          6           0        3.126496   -1.875632    0.887846
     11          1           0       -0.237172    3.831349    1.228339
     12          1           0       -1.419940    2.522704    1.468641
     13          1           0       -1.484939    3.515604    0.006385
     14          1           0        0.138857   -0.420830   -2.031546
     15          1           0        1.285769    0.908087   -1.934723
     16          1           0        0.387931   -0.003907    1.470919
     17          1           0        1.320709   -1.066650    2.526206
     18          1           0        1.995108    0.502175    2.026597
     19          1           0        2.820890   -2.637828    1.613067
     20          1           0        3.487979   -2.349983   -0.021444
     21          1           0        3.936367   -1.280766    1.330438
     22          6           0       -1.681568    0.625218   -0.695625
     23          1           0       -2.307425    1.454350   -0.367150
     24          1           0       -1.910871    0.457301   -1.755132
     25          6           0       -2.077936   -0.629100    0.086355
     26          1           0       -1.947056   -0.461044    1.169271
     27          1           0       -1.430929   -1.478112   -0.191510
     28          8           0       -3.428169   -0.897552   -0.223553
     29          6           0       -3.925721   -2.053053    0.421804
     30          1           0       -4.966216   -2.173050    0.112487
     31          1           0       -3.362039   -2.954039    0.135244
     32          1           0       -3.888738   -1.956217    1.517945
 ---------------------------------------------------------------------
 Rotational constants (GHZ):      0.7395861      0.4493338      0.3468084
 Standard basis: 6-31G(d,p) (6D, 7F)
 There are   300 symmetry adapted basis functions of A   symmetry.
 Integral buffers will be    131072 words long.
 Raffenetti 2 integral format.
 Two-electron integral symmetry is turned on.
   300 basis functions,   518 primitive gaussians,   300 cartesian basis functions
    55 alpha electrons       55 beta electrons
       nuclear repulsion energy       978.2912071865 Hartrees.
 NAtoms=   32 NActive=   32 NUniq=   32 SFac= 1.00D+00 NAtFMM=   60 NAOKFM=F Big=F
 One-electron integrals computed using PRISM.
 NBasis=   300 RedAO= T  NBF=   300
 NBsUse=   300 1.00D-06 NBFU=   300
 Harris functional with IExCor=  402 diagonalized for initial guess.
 ExpMin= 1.61D-01 ExpMax= 5.48D+03 ExpMxC= 8.25D+02 IAcc=1 IRadAn=         1 AccDes= 0.00D+00
 HarFok:  IExCor=  402 AccDes= 0.00D+00 IRadAn=         1 IDoV= 1
 ScaDFX=  1.000000  1.000000  1.000000  1.000000
 FoFCou: FMM=F IPFlag=           0 FMFlag=      100000 FMFlg1=           0
         NFxFlg=           0 DoJE=T BraDBF=F KetDBF=T FulRan=T
         Omega=  0.000000  0.000000  1.000000  0.000000  0.000000 ICntrl=     500 IOpCl=  0
         NMat0=    1 NMatS0=    1 NMatT0=    0 NMatD0=    1 NMtDS0=    0 NMtDT0=    0
         I1Cent=           4 NGrid=           0.
 Petite list used in FoFCou.
 Initial guess orbital symmetries:
       Occupied  (A) (A) (A) (A) (A) (A) (A) (A) (A) (A) (A) (A)
                 (A) (A) (A) (A) (A) (A) (A) (A) (A) (A) (A) (A)
                 (A) (A) (A) (A) (A) (A) (A) (A) (A) (A) (A) (A)
                 (A) (A) (A) (A) (A) (A) (A) (A) (A) (A) (A) (A)
                 (A) (A) (A) (A) (A) (A) (A)
       Virtual   (A) (A) (A) (A) (A) (A) (A) (A) (A) (A) (A) (A)
                 (A) (A) (A) (A) (A) (A) (A) (A) (A) (A) (A) (A)
                 (A) (A) (A) (A) (A) (A) (A) (A) (A) (A) (A) (A)
                 (A) (A) (A) (A) (A) (A) (A) (A) (A) (A) (A) (A)
                 (A) (A) (A) (A) (A) (A) (A) (A) (A) (A) (A) (A)
                 (A) (A) (A) (A) (A) (A) (A) (A) (A) (A) (A) (A)
                 (A) (A) (A) (A) (A) (A) (A) (A) (A) (A) (A) (A)
                 (A) (A) (A) (A) (A) (A) (A) (A) (A) (A) (A) (A)
                 (A) (A) (A) (A) (A) (A) (A) (A) (A) (A) (A) (A)
                 (A) (A) (A) (A) (A) (A) (A) (A) (A) (A) (A) (A)
                 (A) (A) (A) (A) (A) (A) (A) (A) (A) (A) (A) (A)
                 (A) (A) (A) (A) (A) (A) (A) (A) (A) (A) (A) (A)
                 (A) (A) (A) (A) (A) (A) (A) (A) (A) (A) (A) (A)
                 (A) (A) (A) (A) (A) (A) (A) (A) (A) (A) (A) (A)
                 (A) (A) (A) (A) (A) (A) (A) (A) (A) (A) (A) (A)
                 (A) (A) (A) (A) (A) (A) (A) (A) (A) (A) (A) (A)
                 (A) (A) (A) (A) (A) (A) (A) (A) (A) (A) (A) (A)
                 (A) (A) (A) (A) (A) (A) (A) (A) (A) (A) (A) (A)
                 (A) (A) (A) (A) (A) (A) (A) (A) (A) (A) (A) (A)
                 (A) (A) (A) (A) (A) (A) (A) (A) (A) (A) (A) (A)
                 (A) (A) (A) (A) (A)
 The electronic state of the initial guess is 1-A.
 Requested convergence on RMS density matrix=1.00D-08 within 128 cycles.
 Requested convergence on MAX density matrix=1.00D-06.
 Requested convergence on             energy=1.00D-06.
 No special actions if energy rises.
 Keep R1 ints in memory in canonical form, NReq=1033483865.
 Integral accuracy reduced to 1.0D-05 until final iterations.
 Initial convergence to 1.0D-05 achieved.  Increase integral accuracy.
 SCF Done:  E(RB3LYP) =  -688.985864291     A.U. after   14 cycles
             Convg  =    0.7297D-08             -V/T =  2.0093

 **********************************************************************

            Population analysis using the SCF density.

 **********************************************************************

 Orbital symmetries:
       Occupied  (A) (A) (A) (A) (A) (A) (A) (A) (A) (A) (A) (A)
                 (A) (A) (A) (A) (A) (A) (A) (A) (A) (A) (A) (A)
                 (A) (A) (A) (A) (A) (A) (A) (A) (A) (A) (A) (A)
                 (A) (A) (A) (A) (A) (A) (A) (A) (A) (A) (A) (A)
                 (A) (A) (A) (A) (A) (A) (A)
       Virtual   (A) (A) (A) (A) (A) (A) (A) (A) (A) (A) (A) (A)
                 (A) (A) (A) (A) (A) (A) (A) (A) (A) (A) (A) (A)
                 (A) (A) (A) (A) (A) (A) (A) (A) (A) (A) (A) (A)
                 (A) (A) (A) (A) (A) (A) (A) (A) (A) (A) (A) (A)
                 (A) (A) (A) (A) (A) (A) (A) (A) (A) (A) (A) (A)
                 (A) (A) (A) (A) (A) (A) (A) (A) (A) (A) (A) (A)
                 (A) (A) (A) (A) (A) (A) (A) (A) (A) (A) (A) (A)
                 (A) (A) (A) (A) (A) (A) (A) (A) (A) (A) (A) (A)
                 (A) (A) (A) (A) (A) (A) (A) (A) (A) (A) (A) (A)
                 (A) (A) (A) (A) (A) (A) (A) (A) (A) (A) (A) (A)
                 (A) (A) (A) (A) (A) (A) (A) (A) (A) (A) (A) (A)
                 (A) (A) (A) (A) (A) (A) (A) (A) (A) (A) (A) (A)
                 (A) (A) (A) (A) (A) (A) (A) (A) (A) (A) (A) (A)
                 (A) (A) (A) (A) (A) (A) (A) (A) (A) (A) (A) (A)
                 (A) (A) (A) (A) (A) (A) (A) (A) (A) (A) (A) (A)
                 (A) (A) (A) (A) (A) (A) (A) (A) (A) (A) (A) (A)
                 (A) (A) (A) (A) (A) (A) (A) (A) (A) (A) (A) (A)
                 (A) (A) (A) (A) (A) (A) (A) (A) (A) (A) (A) (A)
                 (A) (A) (A) (A) (A) (A) (A) (A) (A) (A) (A) (A)
                 (A) (A) (A) (A) (A) (A) (A) (A) (A) (A) (A) (A)
                 (A) (A) (A) (A) (A)
 The electronic state is 1-A.
 Alpha  occ. eigenvalues --  -19.16390 -19.11605 -19.09873 -14.37289 -14.36335
 Alpha  occ. eigenvalues --  -10.29158 -10.28166 -10.24853 -10.23960 -10.23679
 Alpha  occ. eigenvalues --  -10.22774 -10.21706 -10.20663 -10.19870  -1.04794
 Alpha  occ. eigenvalues --   -1.03806  -1.02294  -0.93902  -0.92438  -0.77715
 Alpha  occ. eigenvalues --   -0.76076  -0.72184  -0.71291  -0.68899  -0.67647
 Alpha  occ. eigenvalues --   -0.63222  -0.56994  -0.54224  -0.51803  -0.50558
 Alpha  occ. eigenvalues --   -0.48788  -0.48244  -0.48039  -0.46920  -0.46155
 Alpha  occ. eigenvalues --   -0.44799  -0.44271  -0.43290  -0.42412  -0.40842
 Alpha  occ. eigenvalues --   -0.40280  -0.40110  -0.39427  -0.39377  -0.38342
 Alpha  occ. eigenvalues --   -0.37544  -0.37279  -0.35495  -0.33819  -0.33380
 Alpha  occ. eigenvalues --   -0.27080  -0.26331  -0.25307  -0.23441  -0.23115
 Alpha virt. eigenvalues --    0.01598   0.03171   0.06625   0.07756   0.09908
 Alpha virt. eigenvalues --    0.10032   0.11936   0.12150   0.13676   0.14404
 Alpha virt. eigenvalues --    0.14611   0.14796   0.15300   0.16012   0.16226
 Alpha virt. eigenvalues --    0.16811   0.17353   0.17553   0.17955   0.18415
 Alpha virt. eigenvalues --    0.18933   0.20421   0.20539   0.22111   0.23157
 Alpha virt. eigenvalues --    0.24217   0.25953   0.26813   0.27941   0.32628
 Alpha virt. eigenvalues --    0.34581   0.37956   0.43663   0.46383   0.47409
 Alpha virt. eigenvalues --    0.48348   0.50107   0.50572   0.53120   0.53689
 Alpha virt. eigenvalues --    0.54508   0.55112   0.55355   0.56523   0.57347
 Alpha virt. eigenvalues --    0.59833   0.60656   0.62399   0.62722   0.63809
 Alpha virt. eigenvalues --    0.66206   0.67214   0.68707   0.70303   0.71274
 Alpha virt. eigenvalues --    0.72394   0.74471   0.76216   0.76925   0.77909
 Alpha virt. eigenvalues --    0.78608   0.79217   0.80370   0.81677   0.82834
 Alpha virt. eigenvalues --    0.83135   0.84314   0.84754   0.84989   0.86079
 Alpha virt. eigenvalues --    0.86425   0.87521   0.88915   0.89114   0.90287
 Alpha virt. eigenvalues --    0.91082   0.92041   0.92838   0.93147   0.93978
 Alpha virt. eigenvalues --    0.95049   0.96398   0.97742   0.98732   1.00452
 Alpha virt. eigenvalues --    1.01885   1.04367   1.07065   1.08599   1.10808
 Alpha virt. eigenvalues --    1.12054   1.13354   1.16163   1.17687   1.19567
 Alpha virt. eigenvalues --    1.24142   1.27197   1.28517   1.30734   1.33779
 Alpha virt. eigenvalues --    1.34215   1.36807   1.37191   1.37650   1.39168
 Alpha virt. eigenvalues --    1.42065   1.42714   1.45284   1.49004   1.53200
 Alpha virt. eigenvalues --    1.54690   1.57893   1.60035   1.63107   1.67483
 Alpha virt. eigenvalues --    1.68047   1.69788   1.70803   1.71159   1.74014
 Alpha virt. eigenvalues --    1.75928   1.77804   1.79403   1.81311   1.82110
 Alpha virt. eigenvalues --    1.84425   1.84643   1.85560   1.86598   1.87171
 Alpha virt. eigenvalues --    1.89025   1.90174   1.91037   1.92293   1.92383
 Alpha virt. eigenvalues --    1.94678   1.96017   1.96727   1.98378   1.99582
 Alpha virt. eigenvalues --    2.01558   2.02014   2.02270   2.02390   2.03077
 Alpha virt. eigenvalues --    2.03714   2.04772   2.04829   2.06148   2.07223
 Alpha virt. eigenvalues --    2.07943   2.09266   2.09741   2.10778   2.12615
 Alpha virt. eigenvalues --    2.13898   2.14545   2.17008   2.17997   2.20228
 Alpha virt. eigenvalues --    2.21827   2.23455   2.25437   2.26332   2.27909
 Alpha virt. eigenvalues --    2.29389   2.31766   2.33518   2.36764   2.37937
 Alpha virt. eigenvalues --    2.39786   2.43317   2.46101   2.47731   2.50509
 Alpha virt. eigenvalues --    2.51880   2.54560   2.55256   2.56757   2.57849
 Alpha virt. eigenvalues --    2.58459   2.60246   2.60847   2.63142   2.65418
 Alpha virt. eigenvalues --    2.65533   2.68011   2.68476   2.68807   2.69611
 Alpha virt. eigenvalues --    2.70884   2.71373   2.74047   2.74947   2.78020
 Alpha virt. eigenvalues --    2.80262   2.80542   2.83668   2.84690   2.84969
 Alpha virt. eigenvalues --    2.86641   2.88560   2.89730   2.90291   2.93067
 Alpha virt. eigenvalues --    2.96670   2.98817   2.99877   3.04770   3.10459
 Alpha virt. eigenvalues --    3.11291   3.13496   3.16435   3.16847   3.19555
 Alpha virt. eigenvalues --    3.21592   3.25687   3.27460   3.33505   3.35390
 Alpha virt. eigenvalues --    3.38002   3.40208   3.41049   3.41936   3.42967
 Alpha virt. eigenvalues --    3.44547   3.45396   3.45850   3.48049   3.51228
 Alpha virt. eigenvalues --    3.54066   3.96161   4.01568   4.07499   4.11586
 Alpha virt. eigenvalues --    4.14645   4.27898   4.34682   4.40486   4.44541
 Alpha virt. eigenvalues --    4.49196   4.54312   4.62958   4.67590   4.74088
          Condensed to atoms (all electrons):
              1          2          3          4          5          6
     1  C    5.157651   0.349450  -0.079949  -0.124188   0.005220  -0.000007
     2  C    0.349450   4.382679   0.574258   0.253286  -0.024866  -0.002288
     3  O   -0.079949   0.574258   8.090134  -0.102840   0.001697   0.003828
     4  N   -0.124188   0.253286  -0.102840   7.230401   0.159130  -0.025507
     5  C    0.005220  -0.024866   0.001697   0.159130   5.079760   0.332538
     6  C   -0.000007  -0.002288   0.003828  -0.025507   0.332538   4.398175
     7  O    0.000000   0.000002  -0.000025   0.003261  -0.072979   0.520817
     8  N   -0.000017  -0.000418  -0.001752   0.008249  -0.089060   0.302776
     9  C    0.000062   0.002090   0.003855  -0.020167   0.001418  -0.019467
    10  C    0.000000  -0.000035  -0.000026  -0.000206   0.005142  -0.030627
    11  H    0.368388  -0.023285   0.004982   0.004646  -0.000107   0.000000
    12  H    0.360561  -0.022521   0.001602   0.002639   0.000000  -0.000005
    13  H    0.361997  -0.019291   0.001267   0.001984  -0.000249  -0.000001
    14  H   -0.000107   0.005237   0.000951  -0.041798   0.367523  -0.034056
    15  H    0.000494  -0.004571   0.010435  -0.042113   0.376206  -0.037715
    16  H   -0.000527  -0.002202  -0.004023   0.011369  -0.000230  -0.005311
    17  H    0.000010   0.000213   0.000148   0.000164  -0.000184   0.002599
    18  H    0.000045   0.001063   0.003161  -0.000540   0.000212  -0.001079
    19  H    0.000000   0.000001   0.000000  -0.000001  -0.000121   0.002721
    20  H    0.000000  -0.000002   0.000000  -0.000019   0.000885  -0.004357
    21  H    0.000000  -0.000003   0.000003   0.000001  -0.000151  -0.000917
    22  C   -0.000696  -0.021846   0.002451   0.252724  -0.032688   0.001243
    23  H    0.008578  -0.008722   0.000139  -0.030963   0.003321  -0.000112
    24  H   -0.000245   0.001047  -0.000050  -0.037698  -0.006226  -0.000252
    25  C   -0.000629   0.000256  -0.000030  -0.054760  -0.001164   0.000500
    26  H   -0.000059   0.000509  -0.000014   0.002876  -0.000549   0.000121
    27  H    0.000024  -0.000045   0.000002   0.000332   0.004294  -0.000540
    28  O   -0.000005   0.000009   0.000000   0.001946  -0.000054  -0.000001
    29  C    0.000000  -0.000001   0.000000  -0.000131   0.000001   0.000001
    30  H    0.000000   0.000000   0.000000   0.000001   0.000000   0.000000
    31  H    0.000000   0.000000   0.000000   0.000013  -0.000002   0.000000
    32  H    0.000000   0.000000   0.000000   0.000008   0.000000   0.000000
              7          8          9         10         11         12
     1  C    0.000000  -0.000017   0.000062   0.000000   0.368388   0.360561
     2  C    0.000002  -0.000418   0.002090  -0.000035  -0.023285  -0.022521
     3  O   -0.000025  -0.001752   0.003855  -0.000026   0.004982   0.001602
     4  N    0.003261   0.008249  -0.020167  -0.000206   0.004646   0.002639
     5  C   -0.072979  -0.089060   0.001418   0.005142  -0.000107   0.000000
     6  C    0.520817   0.302776  -0.019467  -0.030627   0.000000  -0.000005
     7  O    8.139334  -0.083543   0.002587  -0.013891   0.000000   0.000000
     8  N   -0.083543   6.964675   0.291592   0.294414   0.000000   0.000007
     9  C    0.002587   0.291592   4.817801  -0.052970  -0.000002  -0.000068
    10  C   -0.013891   0.294414  -0.052970   4.829109   0.000000   0.000000
    11  H    0.000000   0.000000  -0.000002   0.000000   0.542448  -0.023037
    12  H    0.000000   0.000007  -0.000068   0.000000  -0.023037   0.586883
    13  H    0.000000   0.000000   0.000009   0.000000  -0.021505  -0.030207
    14  H    0.003018   0.001914  -0.000012  -0.000133   0.000002  -0.000009
    15  H    0.003141   0.002282  -0.000346  -0.000161  -0.000013  -0.000008
    16  H    0.000026  -0.030665   0.380228   0.004386   0.000010   0.000951
    17  H   -0.000084  -0.039768   0.377868  -0.005701   0.000000  -0.000022
    18  H    0.000042  -0.044469   0.386315   0.000153   0.000025  -0.000045
    19  H    0.000742  -0.042640  -0.004315   0.382479   0.000000   0.000000
    20  H    0.024774  -0.034045   0.004505   0.382722   0.000000   0.000000
    21  H    0.000971  -0.047323   0.000437   0.389247   0.000000   0.000000
    22  C   -0.000061  -0.000087   0.000233  -0.000001   0.000371  -0.001771
    23  H    0.000001   0.000003  -0.000014   0.000000   0.000001  -0.001319
    24  H    0.000007   0.000022  -0.000081   0.000000  -0.000011   0.000161
    25  C    0.000002  -0.000086   0.000040   0.000000  -0.000002   0.000029
    26  H    0.000001  -0.000109  -0.001584  -0.000001  -0.000012   0.001117
    27  H   -0.000075   0.001194   0.000296  -0.000009   0.000001  -0.000040
    28  O    0.000000   0.000001   0.000004   0.000000   0.000000  -0.000023
    29  C    0.000000   0.000000   0.000001   0.000000   0.000000  -0.000001
    30  H    0.000000   0.000000   0.000000   0.000000   0.000000   0.000000
    31  H    0.000000   0.000000   0.000001   0.000000   0.000000   0.000000
    32  H    0.000000   0.000000  -0.000003   0.000000   0.000000   0.000001
             13         14         15         16         17         18
     1  C    0.361997  -0.000107   0.000494  -0.000527   0.000010   0.000045
     2  C   -0.019291   0.005237  -0.004571  -0.002202   0.000213   0.001063
     3  O    0.001267   0.000951   0.010435  -0.004023   0.000148   0.003161
     4  N    0.001984  -0.041798  -0.042113   0.011369   0.000164  -0.000540
     5  C   -0.000249   0.367523   0.376206  -0.000230  -0.000184   0.000212
     6  C   -0.000001  -0.034056  -0.037715  -0.005311   0.002599  -0.001079
     7  O    0.000000   0.003018   0.003141   0.000026  -0.000084   0.000042
     8  N    0.000000   0.001914   0.002282  -0.030665  -0.039768  -0.044469
     9  C    0.000009  -0.000012  -0.000346   0.380228   0.377868   0.386315
    10  C    0.000000  -0.000133  -0.000161   0.004386  -0.005701   0.000153
    11  H   -0.021505   0.000002  -0.000013   0.000010   0.000000   0.000025
    12  H   -0.030207  -0.000009  -0.000008   0.000951  -0.000022  -0.000045
    13  H    0.570187  -0.000006  -0.000012  -0.000003   0.000000   0.000002
    14  H   -0.000006   0.581170  -0.019572   0.000129   0.000026  -0.000045
    15  H   -0.000012  -0.019572   0.543295   0.000156  -0.000008   0.000115
    16  H   -0.000003   0.000129   0.000156   0.586855  -0.028070  -0.032924
    17  H    0.000000   0.000026  -0.000008  -0.028070   0.627133  -0.043263
    18  H    0.000002  -0.000045   0.000115  -0.032924  -0.043263   0.589816
    19  H    0.000000   0.000015  -0.000003   0.000185   0.006926  -0.001222
    20  H    0.000000  -0.000018  -0.000032  -0.000247   0.000172  -0.000163
    21  H    0.000000  -0.000007   0.000038  -0.000088  -0.002402   0.005347
    22  C   -0.002282  -0.000894   0.001102  -0.002093   0.000019  -0.000017
    23  H    0.001141   0.000364  -0.000151  -0.000078   0.000001   0.000000
    24  H    0.000263   0.004383   0.001310   0.000191   0.000000   0.000000
    25  C    0.000070  -0.002381  -0.000188  -0.000378  -0.000028   0.000032
    26  H    0.000027   0.000035  -0.000009   0.005140   0.000203  -0.000032
    27  H   -0.000004   0.001033   0.000079  -0.000845  -0.000083   0.000031
    28  O   -0.000001  -0.000038   0.000001  -0.000017   0.000000   0.000000
    29  C    0.000000  -0.000003   0.000000  -0.000005   0.000000   0.000000
    30  H    0.000000   0.000000   0.000000   0.000000   0.000000   0.000000
    31  H    0.000000   0.000002   0.000000  -0.000002   0.000000   0.000000
    32  H    0.000000   0.000000   0.000000   0.000008   0.000000   0.000000
             19         20         21         22         23         24
     1  C    0.000000   0.000000   0.000000  -0.000696   0.008578  -0.000245
     2  C    0.000001  -0.000002  -0.000003  -0.021846  -0.008722   0.001047
     3  O    0.000000   0.000000   0.000003   0.002451   0.000139  -0.000050
     4  N   -0.000001  -0.000019   0.000001   0.252724  -0.030963  -0.037698
     5  C   -0.000121   0.000885  -0.000151  -0.032688   0.003321  -0.006226
     6  C    0.002721  -0.004357  -0.000917   0.001243  -0.000112  -0.000252
     7  O    0.000742   0.024774   0.000971  -0.000061   0.000001   0.000007
     8  N   -0.042640  -0.034045  -0.047323  -0.000087   0.000003   0.000022
     9  C   -0.004315   0.004505   0.000437   0.000233  -0.000014  -0.000081
    10  C    0.382479   0.382722   0.389247  -0.000001   0.000000   0.000000
    11  H    0.000000   0.000000   0.000000   0.000371   0.000001  -0.000011
    12  H    0.000000   0.000000   0.000000  -0.001771  -0.001319   0.000161
    13  H    0.000000   0.000000   0.000000  -0.002282   0.001141   0.000263
    14  H    0.000015  -0.000018  -0.000007  -0.000894   0.000364   0.004383
    15  H   -0.000003  -0.000032   0.000038   0.001102  -0.000151   0.001310
    16  H    0.000185  -0.000247  -0.000088  -0.002093  -0.000078   0.000191
    17  H    0.006926   0.000172  -0.002402   0.000019   0.000001   0.000000
    18  H   -0.001222  -0.000163   0.005347  -0.000017   0.000000   0.000000
    19  H    0.617208  -0.022917  -0.044137   0.000000   0.000000   0.000000
    20  H   -0.022917   0.513558  -0.026608   0.000000   0.000000   0.000000
    21  H   -0.044137  -0.026608   0.608344   0.000000   0.000000   0.000000
    22  C    0.000000   0.000000   0.000000   4.883904   0.378937   0.378772
    23  H    0.000000   0.000000   0.000000   0.378937   0.591017  -0.031788
    24  H    0.000000   0.000000   0.000000   0.378772  -0.031788   0.610025
    25  C    0.000000   0.000000   0.000000   0.357199  -0.039073  -0.053402
    26  H    0.000001   0.000000   0.000000  -0.036635  -0.009240   0.006777
    27  H   -0.000009  -0.000002   0.000001  -0.039835   0.006310  -0.007517
    28  O    0.000000   0.000000   0.000000  -0.040644   0.004959   0.006470
    29  C    0.000000   0.000000   0.000000   0.004526  -0.000096  -0.000144
    30  H    0.000000   0.000000   0.000000  -0.000259   0.000006   0.000009
    31  H    0.000000   0.000000   0.000000   0.000020   0.000046  -0.000064
    32  H    0.000000   0.000000   0.000000   0.000041  -0.000065   0.000055
             25         26         27         28         29         30
     1  C   -0.000629  -0.000059   0.000024  -0.000005   0.000000   0.000000
     2  C    0.000256   0.000509  -0.000045   0.000009  -0.000001   0.000000
     3  O   -0.000030  -0.000014   0.000002   0.000000   0.000000   0.000000
     4  N   -0.054760   0.002876   0.000332   0.001946  -0.000131   0.000001
     5  C   -0.001164  -0.000549   0.004294  -0.000054   0.000001   0.000000
     6  C    0.000500   0.000121  -0.000540  -0.000001   0.000001   0.000000
     7  O    0.000002   0.000001  -0.000075   0.000000   0.000000   0.000000
     8  N   -0.000086  -0.000109   0.001194   0.000001   0.000000   0.000000
     9  C    0.000040  -0.001584   0.000296   0.000004   0.000001   0.000000
    10  C    0.000000  -0.000001  -0.000009   0.000000   0.000000   0.000000
    11  H   -0.000002  -0.000012   0.000001   0.000000   0.000000   0.000000
    12  H    0.000029   0.001117  -0.000040  -0.000023  -0.000001   0.000000
    13  H    0.000070   0.000027  -0.000004  -0.000001   0.000000   0.000000
    14  H   -0.002381   0.000035   0.001033  -0.000038  -0.000003   0.000000
    15  H   -0.000188  -0.000009   0.000079   0.000001   0.000000   0.000000
    16  H   -0.000378   0.005140  -0.000845  -0.000017  -0.000005   0.000000
    17  H   -0.000028   0.000203  -0.000083   0.000000   0.000000   0.000000
    18  H    0.000032  -0.000032   0.000031   0.000000   0.000000   0.000000
    19  H    0.000000   0.000001  -0.000009   0.000000   0.000000   0.000000
    20  H    0.000000   0.000000  -0.000002   0.000000   0.000000   0.000000
    21  H    0.000000   0.000000   0.000001   0.000000   0.000000   0.000000
    22  C    0.357199  -0.036635  -0.039835  -0.040644   0.004526  -0.000259
    23  H   -0.039073  -0.009240   0.006310   0.004959  -0.000096   0.000006
    24  H   -0.053402   0.006777  -0.007517   0.006470  -0.000144   0.000009
    25  C    4.789711   0.359646   0.367780   0.233035  -0.034598   0.005403
    26  H    0.359646   0.686454  -0.061541  -0.039461  -0.006030  -0.000126
    27  H    0.367780  -0.061541   0.668129  -0.037719  -0.005852  -0.000093
    28  O    0.233035  -0.039461  -0.037719   8.208288   0.257374  -0.032633
    29  C   -0.034598  -0.006030  -0.005852   0.257374   4.709987   0.395117
    30  H    0.005403  -0.000126  -0.000093  -0.032633   0.395117   0.580486
    31  H   -0.008916  -0.002665   0.012935  -0.037063   0.372263  -0.033946
    32  H   -0.008910   0.012946  -0.002640  -0.037539   0.370545  -0.034800
             31         32
     1  C    0.000000   0.000000
     2  C    0.000000   0.000000
     3  O    0.000000   0.000000
     4  N    0.000013   0.000008
     5  C   -0.000002   0.000000
     6  C    0.000000   0.000000
     7  O    0.000000   0.000000
     8  N    0.000000   0.000000
     9  C    0.000001  -0.000003
    10  C    0.000000   0.000000
    11  H    0.000000   0.000000
    12  H    0.000000   0.000001
    13  H    0.000000   0.000000
    14  H    0.000002   0.000000
    15  H    0.000000   0.000000
    16  H   -0.000002   0.000008
    17  H    0.000000   0.000000
    18  H    0.000000   0.000000
    19  H    0.000000   0.000000
    20  H    0.000000   0.000000
    21  H    0.000000   0.000000
    22  C    0.000020   0.000041
    23  H    0.000046  -0.000065
    24  H   -0.000064   0.000055
    25  C   -0.008916  -0.008910
    26  H   -0.002665   0.012946
    27  H    0.012935  -0.002640
    28  O   -0.037063  -0.037539
    29  C    0.372263   0.370545
    30  H   -0.033946  -0.034800
    31  H    0.650973  -0.051674
    32  H   -0.051674   0.658187
 Mulliken atomic charges:
              1
     1  C   -0.406051
     2  C    0.559997
     3  O   -0.510205
     4  N   -0.452098
     5  C   -0.108717
     6  C    0.596923
     7  O   -0.528066
     8  N   -0.453145
     9  C   -0.170313
    10  C   -0.183893
    11  H    0.147101
    12  H    0.125123
    13  H    0.136612
    14  H    0.133278
    15  H    0.166249
    16  H    0.118074
    17  H    0.104132
    18  H    0.137443
    19  H    0.105087
    20  H    0.161792
    21  H    0.117247
    22  C   -0.081734
    23  H    0.126799
    24  H    0.127987
    25  C    0.090842
    26  H    0.082217
    27  H    0.094409
    28  O   -0.486891
    29  C   -0.062954
    30  H    0.120836
    31  H    0.098079
    32  H    0.093841
 Sum of Mulliken atomic charges =   0.00000
 Mulliken charges with hydrogens summed into heavy atoms:
              1
     1  C    0.002784
     2  C    0.559997
     3  O   -0.510205
     4  N   -0.452098
     5  C    0.190810
     6  C    0.596923
     7  O   -0.528066
     8  N   -0.453145
     9  C    0.189336
    10  C    0.200233
    22  C    0.173052
    25  C    0.267468
    28  O   -0.486891
    29  C    0.249801
 Sum of Mulliken charges with hydrogens summed into heavy atoms =   0.00000
 Electronic spatial extent (au):  <R**2>=           3500.8827
 Charge=              0.0000 electrons
 Dipole moment (field-independent basis, Debye):
    X=             -4.1259    Y=             -0.7099    Z=              3.2741  Tot=              5.3148
 Quadrupole moment (field-independent basis, Debye-Ang):
   XX=            -90.3844   YY=            -84.3981   ZZ=            -85.0498
   XY=             -1.7086   XZ=              5.8830   YZ=             -5.0105
 Traceless Quadrupole moment (field-independent basis, Debye-Ang):
   XX=             -3.7736   YY=              2.2127   ZZ=              1.5610
   XY=             -1.7086   XZ=              5.8830   YZ=             -5.0105
 Octapole moment (field-independent basis, Debye-Ang**2):
  XXX=            -13.2793  YYY=             -7.0107  ZZZ=              3.9345  XYY=            -31.5485
  XXY=            -20.8520  XXZ=             30.4710  XZZ=             -8.8778  YZZ=              8.2800
  YYZ=              8.1148  XYZ=             -9.1346
 Hexadecapole moment (field-independent basis, Debye-Ang**3):
 XXXX=          -2448.9337 YYYY=          -1388.7804 ZZZZ=           -570.9841 XXXY=             72.3594
 XXXZ=             19.9053 YYYX=            -19.5892 YYYZ=              4.1063 ZZZX=             20.7837
 ZZZY=            -11.9047 XXYY=           -617.7288 XXZZ=           -536.7674 YYZZ=           -331.1398
 XXYZ=            -45.3836 YYXZ=             10.7043 ZZXY=             20.1667
 N-N= 9.782912071865D+02 E-N=-3.562056070871D+03  KE= 6.826217324745D+02
 Calling FoFJK, ICntrl=      2127 FMM=F ISym2X=0 I1Cent= 0 IOpClX= 0 NMat=1 NMatS=1 NMatT=0.
 ***** Axes restored to original set *****
 -------------------------------------------------------------------
 Center     Atomic                   Forces (Hartrees/Bohr)
 Number     Number              X              Y              Z
 -------------------------------------------------------------------
      1        6           0.000000443   -0.000002391    0.000002208
      2        6           0.000338554    0.000694746    0.001109256
      3        8          -0.000006462   -0.000002484   -0.000003314
      4        7           0.000050655   -0.001616918   -0.001524289
      5        6          -0.001234362    0.001929965    0.000352485
      6        6           0.000850114   -0.001016443    0.000067209
      7        8           0.000003991   -0.000001943   -0.000002148
      8        7          -0.000000002   -0.000002862    0.000002664
      9        6          -0.000001472    0.000005002   -0.000009457
     10        6           0.000001283    0.000003420   -0.000004020
     11        1          -0.000002064    0.000001897    0.000004697
     12        1          -0.000002228    0.000001053    0.000003993
     13        1          -0.000001209    0.000000636    0.000004561
     14        1          -0.000002436   -0.000008652    0.000007055
     15        1           0.000000105    0.000001517    0.000001484
     16        1           0.000003254   -0.000000470    0.000003040
     17        1           0.000001830    0.000001177   -0.000001404
     18        1          -0.000002593   -0.000001228    0.000002794
     19        1           0.000001605    0.000000542   -0.000002050
     20        1           0.000002192   -0.000001504   -0.000000470
     21        1          -0.000001373   -0.000002597   -0.000002268
     22        6          -0.000006903    0.000001637    0.000000087
     23        1           0.000002071    0.000003747   -0.000000145
     24        1          -0.000000752   -0.000001712    0.000000679
     25        6           0.000013766   -0.000002424    0.000006480
     26        1          -0.000001212    0.000003740   -0.000002311
     27        1           0.000000413   -0.000000533   -0.000001292
     28        8          -0.000009643    0.000001682   -0.000006356
     29        6          -0.000001322    0.000003514   -0.000000920
     30        1           0.000000927    0.000003361   -0.000002131
     31        1           0.000001539    0.000001088   -0.000003594
     32        1           0.000001291    0.000003437   -0.000002523
 -------------------------------------------------------------------
 Cartesian Forces:  Max     0.001929965 RMS     0.000380546

 GradGradGradGradGradGradGradGradGradGradGradGradGradGradGradGradGradGrad
 Berny optimization.
 Internal  Forces:  Max     0.001195321 RMS     0.000160601
 Search for a local minimum.
 Step number   1 out of a maximum of  155 on scan point     1 out of    37
 All quantities printed in internal units (Hartrees-Bohrs-Radians)
 Mixed Optimization -- En-DIIS/RFO-DIIS
 Second derivative matrix not updated -- first step.
 ITU=  0
     Eigenvalues ---    0.00365   0.00480   0.00726   0.00877   0.00878
     Eigenvalues ---    0.00941   0.01065   0.01123   0.01341   0.01507
     Eigenvalues ---    0.01545   0.01957   0.02063   0.02092   0.04115
     Eigenvalues ---    0.05391   0.05512   0.05879   0.06090   0.06907
     Eigenvalues ---    0.07248   0.07454   0.07482   0.07610   0.07644
     Eigenvalues ---    0.09485   0.10039   0.10514   0.11072   0.11888
     Eigenvalues ---    0.12551   0.12932   0.13588   0.16000   0.16000
     Eigenvalues ---    0.16000   0.16000   0.16000   0.16000   0.16000
     Eigenvalues ---    0.16000   0.16000   0.16000   0.16000   0.16000
     Eigenvalues ---    0.21922   0.21961   0.22235   0.24040   0.24078
     Eigenvalues ---    0.24549   0.24552   0.24988   0.24997   0.25000
     Eigenvalues ---    0.25000   0.25000   0.27734   0.29393   0.30209
     Eigenvalues ---    0.33280   0.33351   0.33568   0.33600   0.33902
     Eigenvalues ---    0.34020   0.34064   0.34176   0.34224   0.34260
     Eigenvalues ---    0.34277   0.34423   0.34563   0.34570   0.34868
     Eigenvalues ---    0.34879   0.35112   0.35435   0.36328   0.36766
     Eigenvalues ---    0.36775   0.37371   0.43386   0.43827   0.49107
     Eigenvalues ---    0.51030   0.91182   0.924801000.000001000.00000
     Eigenvalues --- 1000.000001000.000001000.000001000.000001000.00000
     Eigenvalues --- 1000.000001000.000001000.000001000.000001000.00000
     Eigenvalues --- 1000.000001000.000001000.000001000.000001000.00000
     Eigenvalues --- 1000.000001000.000001000.000001000.000001000.00000
     Eigenvalues --- 1000.000001000.000001000.000001000.000001000.00000
     Eigenvalues --- 1000.000001000.000001000.000001000.000001000.00000
     Eigenvalues --- 1000.000001000.000001000.000001000.000001000.00000
     Eigenvalues --- 1000.000001000.000001000.000001000.000001000.00000
     Eigenvalues --- 1000.000001000.000001000.000001000.000001000.00000
     Eigenvalues --- 1000.000001000.000001000.000001000.000001000.00000
     Eigenvalues --- 1000.000001000.000001000.000001000.000001000.00000
 RFO step:  Lambda= 0.00000000D+00 EMin= 3.64722188D-03
 Linear search not attempted -- first point.
 Iteration  1 RMS(Cart)=  0.00012337 RMS(Int)=  0.00000001
 Iteration  2 RMS(Cart)=  0.00000001 RMS(Int)=  0.00000000
 Iteration  1 RMS(Cart)=  0.00000000 RMS(Int)=  0.00000000
 Variable       Old X    -DE/DX   Delta X   Delta X   Delta X     New X
                                 (Linear)    (Quad)   (Total)
    R1        2.87549   0.00000   0.00000   0.00000   0.00000   2.87549
    R2        2.05872   0.00000   0.00000   0.00000   0.00000   2.05872
    R3        2.06865   0.00000   0.00000   0.00000   0.00000   2.06864
    R4        2.06954   0.00000   0.00000   0.00000   0.00000   2.06954
    R5        2.31811   0.00000   0.00000   0.00001   0.00001   2.31811
    R6        2.60777  -0.00001   0.00000  -0.00002  -0.00002   2.60775
    R7        2.76872   0.00000   0.00000   0.00000   0.00000   2.76872
    R8        2.76201  -0.00001   0.00000  -0.00002  -0.00002   2.76199
    R9        2.92723   0.00000   0.00000  -0.00001  -0.00001   2.92722
   R10        2.06390   0.00001   0.00000   0.00002   0.00002   2.06392
   R11        2.06622   0.00000   0.00000   0.00001   0.00001   2.06623
   R12        2.32393   0.00000   0.00000   0.00000   0.00000   2.32393
   R13        2.58840   0.00000   0.00000   0.00000   0.00000   2.58841
   R14        2.75290   0.00000   0.00000   0.00001   0.00001   2.75292
   R15        2.76186   0.00000   0.00000  -0.00001  -0.00001   2.76186
   R16        2.04975   0.00000   0.00000   0.00001   0.00001   2.04976
   R17        2.06894   0.00000   0.00000   0.00000   0.00000   2.06895
   R18        2.07222   0.00000   0.00000   0.00000   0.00000   2.07221
   R19        2.07034   0.00000   0.00000   0.00000   0.00000   2.07033
   R20        2.05493   0.00000   0.00000   0.00000   0.00000   2.05493
   R21        2.07495   0.00000   0.00000   0.00000   0.00000   2.07496
   R22        2.05889   0.00000   0.00000   0.00001   0.00001   2.05891
   R23        2.07296   0.00000   0.00000   0.00000   0.00000   2.07296
   R24        2.89191   0.00000   0.00000   0.00000   0.00000   2.89190
   R25        2.08563   0.00000   0.00000   0.00001   0.00001   2.08563
   R26        2.08440   0.00000   0.00000   0.00000   0.00000   2.08440
   R27        2.66662  -0.00001   0.00000  -0.00003  -0.00003   2.66659
   R28        2.67196   0.00000   0.00000  -0.00001  -0.00001   2.67195
   R29        2.06379   0.00000   0.00000   0.00000   0.00000   2.06379
   R30        2.08010   0.00000   0.00000   0.00000   0.00000   2.08010
   R31        2.08065   0.00000   0.00000   0.00000   0.00000   2.08065
    A1        1.87002   0.00000   0.00000   0.00001   0.00001   1.87003
    A2        1.96296   0.00000   0.00000  -0.00001  -0.00001   1.96294
    A3        1.94709   0.00000   0.00000   0.00000   0.00000   1.94709
    A4        1.90575   0.00000   0.00000   0.00001   0.00001   1.90576
    A5        1.89653   0.00000   0.00000   0.00000   0.00000   1.89653
    A6        1.88042   0.00000   0.00000   0.00000   0.00000   1.88042
    A7        2.11515   0.00000   0.00000   0.00001   0.00001   2.11516
    A8        2.06854  -0.00001   0.00000  -0.00004  -0.00004   2.06850
    A9        2.09937   0.00001   0.00000   0.00002   0.00002   2.09939
   A10        2.03436   0.00006   0.00000   0.00000   0.00000   2.03436
   A11        2.17528  -0.00018   0.00000  -0.00002  -0.00002   2.17525
   A12        2.04817   0.00004   0.00000   0.00001   0.00001   2.04818
   A13        2.20023   0.00001   0.00000   0.00000   0.00000   2.20023
   A14        1.88011  -0.00005   0.00000   0.00008   0.00008   1.88018
   A15        1.88987   0.00005   0.00000  -0.00006  -0.00006   1.88981
   A16        1.81281  -0.00045   0.00000  -0.00001  -0.00001   1.81280
   A17        1.78926   0.00045   0.00000   0.00000   0.00000   1.78926
   A18        1.86932   0.00000   0.00000  -0.00001  -0.00001   1.86931
   A19        1.96698   0.00000   0.00000   0.00000   0.00000   1.96698
   A20        2.19208   0.00000   0.00000  -0.00001  -0.00001   2.19207
   A21        2.12357   0.00000   0.00000   0.00001   0.00001   2.12358
   A22        2.22012   0.00000   0.00000   0.00000   0.00000   2.22012
   A23        2.04314   0.00000   0.00000  -0.00001  -0.00001   2.04314
   A24        1.99199   0.00000   0.00000   0.00000   0.00000   1.99198
   A25        1.93843   0.00000   0.00000  -0.00002  -0.00002   1.93841
   A26        1.89227   0.00000   0.00000   0.00001   0.00001   1.89228
   A27        1.95012   0.00000   0.00000  -0.00002  -0.00002   1.95009
   A28        1.88672   0.00000   0.00000   0.00000   0.00000   1.88672
   A29        1.89994   0.00000   0.00000   0.00003   0.00003   1.89997
   A30        1.89483   0.00000   0.00000   0.00001   0.00001   1.89484
   A31        1.91400   0.00000   0.00000  -0.00001  -0.00001   1.91399
   A32        1.89894   0.00000   0.00000  -0.00002  -0.00002   1.89891
   A33        1.93299   0.00000   0.00000   0.00003   0.00003   1.93303
   A34        1.92066   0.00000   0.00000   0.00000   0.00000   1.92066
   A35        1.89213   0.00000   0.00000   0.00000   0.00000   1.89212
   A36        1.90519   0.00000   0.00000   0.00000   0.00000   1.90519
   A37        1.92057   0.00000   0.00000   0.00000   0.00000   1.92057
   A38        1.91336   0.00000   0.00000   0.00001   0.00001   1.91337
   A39        1.97608   0.00000   0.00000  -0.00002  -0.00002   1.97606
   A40        1.86252   0.00000   0.00000   0.00001   0.00001   1.86253
   A41        1.89749   0.00000   0.00000   0.00000   0.00000   1.89749
   A42        1.89013   0.00000   0.00000   0.00001   0.00001   1.89014
   A43        1.92395   0.00000   0.00000  -0.00002  -0.00002   1.92393
   A44        1.92862   0.00000   0.00000   0.00000   0.00000   1.92862
   A45        1.86663   0.00000   0.00000   0.00002   0.00002   1.86665
   A46        1.87007   0.00000   0.00000   0.00000   0.00000   1.87006
   A47        1.93685   0.00000   0.00000   0.00000   0.00000   1.93684
   A48        1.93854   0.00000   0.00000   0.00001   0.00001   1.93855
   A49        1.97353   0.00000   0.00000   0.00000   0.00000   1.97353
   A50        1.87107   0.00000   0.00000  -0.00001  -0.00001   1.87106
   A51        1.94969   0.00000   0.00000   0.00001   0.00001   1.94970
   A52        1.95056   0.00000   0.00000   0.00000   0.00000   1.95056
   A53        1.90098   0.00000   0.00000   0.00000   0.00000   1.90099
   A54        1.90037   0.00000   0.00000   0.00000   0.00000   1.90036
   A55        1.89016   0.00000   0.00000   0.00000   0.00000   1.89016
    D1       -0.09656   0.00000   0.00000   0.00017   0.00017  -0.09639
    D2        3.02765   0.00000   0.00000  -0.00009  -0.00009   3.02756
    D3       -2.19079   0.00000   0.00000   0.00016   0.00016  -2.19063
    D4        0.93341   0.00000   0.00000  -0.00010  -0.00010   0.93331
    D5        1.97714   0.00000   0.00000   0.00018   0.00018   1.97731
    D6       -1.18184   0.00000   0.00000  -0.00009  -0.00009  -1.18193
    D7        3.01383  -0.00019   0.00000  -0.00004  -0.00004   3.01379
    D8        0.11956   0.00018   0.00000   0.00002   0.00002   0.11958
    D9       -0.14499  -0.00019   0.00000  -0.00030  -0.00030  -0.14529
   D10       -3.03926   0.00018   0.00000  -0.00024  -0.00024  -3.03950
   D11        1.37305   0.00120   0.00000   0.00000   0.00000   1.37305
   D12       -2.76418   0.00047   0.00000   0.00007   0.00007  -2.76411
   D13       -0.74805   0.00046   0.00000   0.00006   0.00006  -0.74799
   D14       -1.99731   0.00082   0.00000  -0.00006  -0.00006  -1.99737
   D15        0.14865   0.00009   0.00000   0.00000   0.00000   0.14865
   D16        2.16477   0.00009   0.00000   0.00000   0.00000   2.16477
   D17        0.10432  -0.00019   0.00000  -0.00003  -0.00003   0.10429
   D18        2.14762  -0.00018   0.00000  -0.00001  -0.00001   2.14761
   D19       -2.02296  -0.00018   0.00000  -0.00001  -0.00001  -2.02297
   D20       -2.78817   0.00018   0.00000   0.00003   0.00003  -2.78814
   D21       -0.74488   0.00019   0.00000   0.00005   0.00005  -0.74483
   D22        1.36773   0.00018   0.00000   0.00005   0.00005   1.36778
   D23        3.13055  -0.00036   0.00000  -0.00001  -0.00001   3.13055
   D24        0.02450  -0.00036   0.00000   0.00000   0.00000   0.02450
   D25        0.95612   0.00018   0.00000  -0.00011  -0.00011   0.95601
   D26       -2.14994   0.00018   0.00000  -0.00010  -0.00010  -2.15004
   D27       -0.98844   0.00018   0.00000  -0.00009  -0.00009  -0.98853
   D28        2.18869   0.00018   0.00000  -0.00008  -0.00008   2.18861
   D29       -0.19268   0.00000   0.00000   0.00001   0.00001  -0.19267
   D30       -3.06624   0.00000   0.00000   0.00005   0.00005  -3.06620
   D31        2.98743   0.00000   0.00000   0.00002   0.00002   2.98745
   D32        0.11387   0.00000   0.00000   0.00005   0.00005   0.11393
   D33        0.57830   0.00000   0.00000   0.00000   0.00000   0.57830
   D34        2.64882   0.00000   0.00000  -0.00001  -0.00001   2.64881
   D35       -1.54687   0.00000   0.00000   0.00000   0.00000  -1.54687
   D36       -2.82468   0.00000   0.00000  -0.00004  -0.00004  -2.82471
   D37       -0.75416   0.00000   0.00000  -0.00005  -0.00005  -0.75421
   D38        1.33334   0.00000   0.00000  -0.00004  -0.00004   1.33330
   D39       -2.35378   0.00000   0.00000   0.00003   0.00003  -2.35375
   D40       -0.25224   0.00000   0.00000   0.00001   0.00001  -0.25223
   D41        1.84186   0.00000   0.00000   0.00002   0.00002   1.84188
   D42        1.02106   0.00000   0.00000   0.00006   0.00006   1.02112
   D43        3.12260   0.00000   0.00000   0.00004   0.00004   3.12264
   D44       -1.06649   0.00000   0.00000   0.00005   0.00005  -1.06644
   D45        1.10631   0.00000   0.00000  -0.00012  -0.00012   1.10619
   D46       -0.95751   0.00000   0.00000  -0.00011  -0.00011  -0.95762
   D47       -3.06957   0.00000   0.00000  -0.00013  -0.00013  -3.06970
   D48       -1.03384   0.00000   0.00000  -0.00010  -0.00010  -1.03395
   D49       -3.09766   0.00000   0.00000  -0.00009  -0.00009  -3.09775
   D50        1.07346   0.00000   0.00000  -0.00011  -0.00011   1.07335
   D51       -3.05121   0.00000   0.00000  -0.00012  -0.00012  -3.05132
   D52        1.16816   0.00000   0.00000  -0.00010  -0.00010   1.16806
   D53       -0.94390   0.00000   0.00000  -0.00012  -0.00012  -0.94402
   D54        3.12678   0.00000   0.00000   0.00002   0.00002   3.12680
   D55       -1.05733   0.00000   0.00000   0.00000   0.00000  -1.05733
   D56        1.02103   0.00000   0.00000   0.00000   0.00000   1.02103
   D57       -3.13560   0.00000   0.00000   0.00001   0.00001  -3.13559
   D58       -1.05432   0.00000   0.00000   0.00001   0.00001  -1.05431
   D59        1.06657   0.00000   0.00000   0.00002   0.00002   1.06659
         Item               Value     Threshold  Converged?
 Maximum Force            0.000013     0.000450     YES
 RMS     Force            0.000003     0.000300     YES
 Maximum Displacement     0.000588     0.001800     YES
 RMS     Displacement     0.000123     0.001200     YES
 Predicted change in Energy=-4.429543D-09
 Optimization completed.
    -- Stationary point found.
                           ----------------------------
                           !   Optimized Parameters   !
                           ! (Angstroms and Degrees)  !
 --------------------------                            --------------------------
 ! Name  Definition              Value          Derivative Info.                !
 --------------------------------------------------------------------------------
 ! R1    R(1,2)                  1.5216         -DE/DX =    0.0                 !
 ! R2    R(1,11)                 1.0894         -DE/DX =    0.0                 !
 ! R3    R(1,12)                 1.0947         -DE/DX =    0.0                 !
 ! R4    R(1,13)                 1.0952         -DE/DX =    0.0                 !
 ! R5    R(2,3)                  1.2267         -DE/DX =    0.0                 !
 ! R6    R(2,4)                  1.38           -DE/DX =    0.0                 !
 ! R7    R(4,5)                  1.4651         -DE/DX =    0.0                 !
 ! R8    R(4,22)                 1.4616         -DE/DX =    0.0                 !
 ! R9    R(5,6)                  1.549          -DE/DX =    0.0                 !
 ! R10   R(5,14)                 1.0922         -DE/DX =    0.0                 !
 ! R11   R(5,15)                 1.0934         -DE/DX =    0.0                 !
 ! R12   R(6,7)                  1.2298         -DE/DX =    0.0                 !
 ! R13   R(6,8)                  1.3697         -DE/DX =    0.0                 !
 ! R14   R(8,9)                  1.4568         -DE/DX =    0.0                 !
 ! R15   R(8,10)                 1.4615         -DE/DX =    0.0                 !
 ! R16   R(9,16)                 1.0847         -DE/DX =    0.0                 !
 ! R17   R(9,17)                 1.0948         -DE/DX =    0.0                 !
 ! R18   R(9,18)                 1.0966         -DE/DX =    0.0                 !
 ! R19   R(10,19)                1.0956         -DE/DX =    0.0                 !
 ! R20   R(10,20)                1.0874         -DE/DX =    0.0                 !
 ! R21   R(10,21)                1.098          -DE/DX =    0.0                 !
 ! R22   R(22,23)                1.0895         -DE/DX =    0.0                 !
 ! R23   R(22,24)                1.097          -DE/DX =    0.0                 !
 ! R24   R(22,25)                1.5303         -DE/DX =    0.0                 !
 ! R25   R(25,26)                1.1037         -DE/DX =    0.0                 !
 ! R26   R(25,27)                1.103          -DE/DX =    0.0                 !
 ! R27   R(25,28)                1.4111         -DE/DX =    0.0                 !
 ! R28   R(28,29)                1.4139         -DE/DX =    0.0                 !
 ! R29   R(29,30)                1.0921         -DE/DX =    0.0                 !
 ! R30   R(29,31)                1.1007         -DE/DX =    0.0                 !
 ! R31   R(29,32)                1.101          -DE/DX =    0.0                 !
 ! A1    A(2,1,11)             107.1444         -DE/DX =    0.0                 !
 ! A2    A(2,1,12)             112.4692         -DE/DX =    0.0                 !
 ! A3    A(2,1,13)             111.5601         -DE/DX =    0.0                 !
 ! A4    A(11,1,12)            109.1915         -DE/DX =    0.0                 !
 ! A5    A(11,1,13)            108.663          -DE/DX =    0.0                 !
 ! A6    A(12,1,13)            107.7404         -DE/DX =    0.0                 !
 ! A7    A(1,2,3)              121.1889         -DE/DX =    0.0                 !
 ! A8    A(1,2,4)              118.5185         -DE/DX =    0.0                 !
 ! A9    A(3,2,4)              120.285          -DE/DX =    0.0                 !
 ! A10   A(2,4,5)              116.5603         -DE/DX =    0.0001              !
 ! A11   A(2,4,22)             124.6342         -DE/DX =   -0.0002              !
 ! A12   A(5,4,22)             117.3513         -DE/DX =    0.0                 !
 ! A13   A(4,5,6)              126.0638         -DE/DX =    0.0                 !
 ! A14   A(4,5,14)             107.7222         -DE/DX =    0.0                 !
 ! A15   A(4,5,15)             108.2815         -DE/DX =    0.0001              !
 ! A16   A(6,5,14)             103.8665         -DE/DX =   -0.0005              !
[...]
 ! D43   D(9,8,10,20)          175.4671         -DE/DX =    0.0                 !
 ! D44   D(9,8,10,21)          -64.5055         -DE/DX =    0.0                 !
 ! D45   D(4,22,25,26)          60.2563         -DE/DX =    0.0                 !
 ! D46   D(4,22,25,27)         -58.9849         -DE/DX =    0.0                 !
 ! D47   D(4,22,25,28)        -179.533          -DE/DX =    0.0                 !
 ! D48   D(23,22,25,26)        -61.7583         -DE/DX =    0.0                 !
 ! D49   D(23,22,25,27)        179.0006         -DE/DX =    0.0                 !
 ! D50   D(23,22,25,28)         58.4524         -DE/DX =    0.0                 !
 ! D51   D(24,22,25,26)       -176.306          -DE/DX =    0.0                 !
 ! D52   D(24,22,25,27)         64.4528         -DE/DX =    0.0                 !
 ! D53   D(24,22,25,28)        -56.0953         -DE/DX =    0.0                 !
 ! D54   D(22,25,28,29)        179.7134         -DE/DX =    0.0                 !
 ! D55   D(26,25,28,29)        -60.4337         -DE/DX =    0.0                 !
 ! D56   D(27,25,28,29)         58.5646         -DE/DX =    0.0                 !
 ! D57   D(25,28,29,30)       -179.9404         -DE/DX =    0.0                 !
 ! D58   D(25,28,29,31)        -60.7089         -DE/DX =    0.0                 !
 ! D59   D(25,28,29,32)         60.8223         -DE/DX =    0.0                 !
 --------------------------------------------------------------------------------
 Iteration  1 RMS(Cart)=  0.04168161 RMS(Int)=  0.01111338
 Iteration  2 RMS(Cart)=  0.00116088 RMS(Int)=  0.01110235
 Iteration  3 RMS(Cart)=  0.00000697 RMS(Int)=  0.01110235
 Iteration  4 RMS(Cart)=  0.00000016 RMS(Int)=  0.01110235
 Iteration  1 RMS(Cart)=  0.02546275 RMS(Int)=  0.00682308
 Iteration  2 RMS(Cart)=  0.01633804 RMS(Int)=  0.00753945
 Iteration  3 RMS(Cart)=  0.01087764 RMS(Int)=  0.00860735
 Iteration  4 RMS(Cart)=  0.00741779 RMS(Int)=  0.00948486
 Iteration  5 RMS(Cart)=  0.00512459 RMS(Int)=  0.01013264
 Iteration  6 RMS(Cart)=  0.00356315 RMS(Int)=  0.01059616
 Iteration  7 RMS(Cart)=  0.00248482 RMS(Int)=  0.01092401
 Iteration  8 RMS(Cart)=  0.00173503 RMS(Int)=  0.01115469
 Iteration  9 RMS(Cart)=  0.00121209 RMS(Int)=  0.01131656
 Iteration 10 RMS(Cart)=  0.00084688 RMS(Int)=  0.01142997
 Iteration 11 RMS(Cart)=  0.00059172 RMS(Int)=  0.01150935
 Iteration 12 RMS(Cart)=  0.00041341 RMS(Int)=  0.01156487
 Iteration 13 RMS(Cart)=  0.00028882 RMS(Int)=  0.01160369
 Iteration 14 RMS(Cart)=  0.00020177 RMS(Int)=  0.01163083
 Iteration 15 RMS(Cart)=  0.00014095 RMS(Int)=  0.01164979
 Iteration 16 RMS(Cart)=  0.00009846 RMS(Int)=  0.01166304
 Iteration 17 RMS(Cart)=  0.00006878 RMS(Int)=  0.01167230
 Iteration 18 RMS(Cart)=  0.00004805 RMS(Int)=  0.01167876
 Iteration 19 RMS(Cart)=  0.00003356 RMS(Int)=  0.01168328
 Iteration 20 RMS(Cart)=  0.00002344 RMS(Int)=  0.01168644
 Iteration 21 RMS(Cart)=  0.00001637 RMS(Int)=  0.01168864
 Iteration 22 RMS(Cart)=  0.00001144 RMS(Int)=  0.01169018
 Iteration 23 RMS(Cart)=  0.00000799 RMS(Int)=  0.01169126
 Iteration 24 RMS(Cart)=  0.00000558 RMS(Int)=  0.01169201
 Iteration 25 RMS(Cart)=  0.00000390 RMS(Int)=  0.01169254
 Iteration 26 RMS(Cart)=  0.00000272 RMS(Int)=  0.01169290
 Iteration 27 RMS(Cart)=  0.00000190 RMS(Int)=  0.01169316
 Iteration 28 RMS(Cart)=  0.00000133 RMS(Int)=  0.01169334
 Iteration 29 RMS(Cart)=  0.00000093 RMS(Int)=  0.01169346
 GradGradGradGradGradGradGradGradGradGradGradGradGradGradGradGradGradGrad

                          Input orientation:                          
 ---------------------------------------------------------------------
 Center     Atomic      Atomic             Coordinates (Angstroms)
 Number     Number       Type             X           Y           Z
 ---------------------------------------------------------------------
      1          6           0        0.907873    3.341769   -0.228871
      2          6           0       -0.117403    2.359679    0.320772
      3          8           0       -1.216897    2.740302    0.688576
      4          7           0        0.201997    0.995737    0.325467
      5          6           0       -0.749726    0.165193    1.095306
      6          6           0       -2.115553   -0.234247    0.485120
      7          8           0       -3.123451    0.059617    1.118525
      8          7           0       -2.181547   -1.154835   -0.535588
      9          6           0       -1.100626   -1.496056   -1.443038
     10          6           0       -3.486596   -1.698203   -0.890202
     11          1           0        0.369982    4.256334   -0.478376
     12          1           0        1.421985    2.965710   -1.117587
     13          1           0        1.664429    3.587997    0.524323
     14          1           0       -0.279380   -0.767899    1.422812
     15          1           0       -1.017970    0.755705    1.973356
     16          1           0       -0.269906   -0.808110   -1.318251
     17          1           0       -0.752865   -2.528775   -1.293300
     18          1           0       -1.447907   -1.409286   -2.480910
     19          1           0       -3.416477   -2.787785   -0.997223
     20          1           0       -4.194402   -1.446707   -0.102334
     21          1           0       -3.843805   -1.280009   -1.841321
     22          6           0        1.619406    0.631036    0.520396
     23          1           0        2.252871    1.481508    0.274782
     24          1           0        1.806211    0.395959    1.577415
     25          6           0        2.102441   -0.547364   -0.323875
     26          1           0        1.991913   -0.320152   -1.397788
     27          1           0        1.517564   -1.458946   -0.118288
     28          8           0        3.460567   -0.742009    0.012254
     29          6           0        4.055878   -1.814517   -0.690257
     30          1           0        5.094767   -1.879949   -0.359853
     31          1           0        3.553249   -2.770731   -0.477300
     32          1           0        4.037850   -1.649743   -1.778800
 ---------------------------------------------------------------------
                    Distance matrix (angstroms):
                    1          2          3          4          5
     1  C    0.000000
     2  C    1.522432   0.000000
     3  O    2.391259   1.220262   0.000000
     4  N    2.511855   1.400849   2.277853   0.000000
     5  C    3.819910   2.411536   2.648559   1.479268   0.000000
     6  C    4.736959   3.278424   3.113988   2.628571   1.548341
     7  O    5.370248   3.868206   3.317511   3.544554   2.376184
     8  N    5.464251   4.164835   4.195381   3.323802   2.540157
     9  C    5.377064   4.352522   4.743841   3.321666   3.053861
    10  C    6.719377   5.411499   5.229187   4.726614   3.860691
    11  H    1.089958   2.115061   2.485622   3.362421   4.524120
    12  H    1.093411   2.192229   3.205734   2.729756   4.178052
    13  H    1.095585   2.173736   3.007924   2.982963   4.227264
    14  H    4.585520   3.320011   3.704796   2.132205   1.095055
    15  H    3.904664   2.472809   2.372521   2.064333   1.091619
    16  H    4.449203   3.569950   4.185138   2.485632   2.646281
    17  H    6.193089   5.187102   5.648570   3.994290   3.600404
    18  H    5.761415   4.881062   5.226671   4.047477   3.969353
    19  H    7.540676   6.254389   6.183835   5.399805   4.495588
    20  H    6.998480   5.593703   5.198281   5.047462   3.987274
    21  H    6.821970   5.639862   5.428068   5.122743   4.503966
    22  C    2.900992   2.458570   3.538630   1.476500   2.481999
    23  H    2.350161   2.528141   3.714172   2.108228   3.379576
    24  H    3.570360   3.022522   3.927487   2.121464   2.611225
    25  C    4.069567   3.714052   4.780357   2.532685   3.264455
    26  H    3.993892   3.818921   4.900587   2.811578   3.737333
    27  H    4.840539   4.177055   5.075627   2.820125   3.041585
    28  O    4.821994   4.745263   5.870483   3.706230   4.441012
    29  C    6.058886   5.988520   7.102797   4.876641   5.495573
    30  H    6.694294   6.753104   7.891960   5.716505   6.360676
    31  H    6.665012   6.358594   7.381399   5.105057   5.441354
    32  H    6.092144   6.144086   7.278242   5.112756   5.871572
                    6          7          8          9         10
     6  C    0.000000
     7  O    1.226138   0.000000
     8  N    1.376111   2.257911   0.000000
     9  C    2.517942   3.615735   1.451995   0.000000
    10  C    2.431961   2.693843   1.457447   2.457507   0.000000
    11  H    5.222215   5.689165   5.982836   6.015252   7.106286
    12  H    5.032153   5.840082   5.504821   5.135839   6.774802
    13  H    5.375812   5.977152   6.197532   6.112580   7.515175
    14  H    2.129691   2.977601   2.757406   3.068836   4.062233
    15  H    2.097508   2.376620   3.361380   4.092555   4.507299
    16  H    2.643459   3.851434   2.094553   1.085788   3.364904
    17  H    3.206954   4.258679   2.122021   1.099940   2.885415
    18  H    3.259417   4.233327   2.094577   1.097867   2.601937
    19  H    3.226499   3.559487   2.098734   2.688955   1.097069
    20  H    2.477251   2.215050   2.079539   3.372147   1.088566
    21  H    3.081039   3.327791   2.117477   2.780348   1.098686
    22  C    3.834042   4.814454   4.330321   3.972174   5.786743
    23  H    4.697997   5.624811   5.222170   4.802367   6.664024
    24  H    4.119526   4.962385   4.771997   4.599191   6.203906
    25  C    4.306273   5.455170   4.332020   3.523092   5.734325
    26  H    4.519292   5.713405   4.342563   3.308866   5.671924
    27  H    3.881176   5.037336   3.734976   2.934495   5.068995
    28  O    5.619122   6.724264   5.683661   4.846746   7.070488
    29  C    6.478065   7.637201   6.274120   5.220884   7.546020
    30  H    7.443859   8.572434   7.314467   6.301076   8.599656
    31  H    6.284530   7.425351   5.958389   4.920975   7.133037
    32  H    6.707706   7.912056   6.361714   5.151727   7.576888
                   11         12         13         14         15
    11  H    0.000000
    12  H    1.783539   0.000000
    13  H    1.768523   1.772538   0.000000
    14  H    5.411017   4.825775   4.853814   0.000000
    15  H    4.493529   4.515687   4.161351   1.780445   0.000000
    16  H    5.173340   4.140589   5.144171   2.741374   3.720187
    17  H    6.925503   5.911871   6.823634   3.271413   4.639950
    18  H    6.278066   5.406988   6.609910   4.125031   4.971169
    19  H    8.014118   7.518504   8.293450   4.447234   5.208982
    20  H    7.314348   7.214150   7.750281   4.256084   4.387349
    21  H    7.089761   6.802827   7.722331   4.860242   5.165388
    22  C    3.962499   2.858788   2.957307   2.525225   3.013700
    23  H    3.436885   2.198163   2.201325   3.576324   3.756373
    24  H    4.603425   3.743565   3.364255   2.393356   2.874401
    25  C    5.108894   3.665336   4.244115   2.961861   4.088058
    26  H    4.941680   3.346673   4.367538   3.648977   4.645586
    27  H    5.840465   4.537104   5.089809   2.466078   3.963406
    28  O    5.897106   4.379445   4.715642   3.997192   5.113351
    29  C    7.105347   5.474539   6.031699   4.935072   6.280511
    30  H    7.745425   6.127307   6.515168   5.770269   7.053800
    31  H    7.714456   6.152968   6.708526   4.723432   6.271962
    32  H    7.072913   5.346247   6.194467   5.446691   6.739894
                   16         17         18         19         20
    16  H    0.000000
    17  H    1.787333   0.000000
    18  H    1.760930   1.773910   0.000000
    19  H    3.731364   2.692503   2.824332   0.000000
    20  H    4.157875   3.799138   3.633491   1.790107   0.000000
    21  H    3.642670   3.378410   2.483166   1.780028   1.781792
    22  C    3.003542   4.347594   4.751753   6.273087   6.205254
    23  H    3.760918   5.251257   5.444840   7.210156   7.091120
    24  H    3.760974   4.831557   5.506196   6.636373   6.498025
    25  C    2.585498   3.608122   4.242721   5.994275   6.364599
    26  H    2.315222   3.524591   3.767191   5.958217   6.420110
    27  H    2.249121   2.771288   3.791895   5.184891   5.712001
    28  O    3.961192   4.759203   5.545651   7.245549   7.688191
    29  C    4.485492   4.898759   5.801922   7.541722   8.279376
    30  H    5.554015   5.957105   6.893982   8.583221   9.302832
    31  H    4.378994   4.389421   5.556936   6.989112   7.868909
    32  H    4.413299   4.894830   5.535730   7.581094   8.403674
                   21         22         23         24         25
    21  H    0.000000
    22  C    6.251118   0.000000
    23  H    7.019496   1.088534   0.000000
    24  H    6.813171   1.098838   1.753503   0.000000
    25  C    6.180392   1.527986   2.120693   2.143015   0.000000
    26  H    5.930738   2.173234   2.472158   3.065800   1.103237
    27  H    5.634282   2.187764   3.056378   2.529703   1.102419
    28  O    7.555067   2.352304   2.543910   2.545897   1.412578
    29  C    8.000978   3.658252   3.878907   3.884527   2.357081
    30  H    9.080350   4.376987   4.447305   4.443801   3.275835
    31  H    7.668064   4.038213   4.509783   4.159558   2.659275
    32  H    7.890570   4.041921   4.148262   4.519877   2.660424
                   26         27         28         29         30
    26  H    0.000000
    27  H    1.777352   0.000000
    28  O    2.079213   2.075163   0.000000
    29  C    2.644557   2.626142   1.413574   0.000000
    30  H    3.624635   3.609984   2.025829   1.092125   0.000000
    31  H    3.048017   2.448200   2.089011   1.101060   1.784255
    32  H    2.469583   3.024160   2.089285   1.101091   1.784231
                   31         32
    31  H    0.000000
    32  H    1.784757   0.000000
 Stoichiometry    C9H18N2O3
 Framework group  C1[X(C9H18N2O3)]
 Deg. of freedom    90
 Full point group                 C1      NOp   1
 Largest Abelian subgroup         C1      NOp   1
 Largest concise Abelian subgroup C1      NOp   1
                         Standard orientation:                         
 ---------------------------------------------------------------------
 Center     Atomic      Atomic             Coordinates (Angstroms)
 Number     Number       Type             X           Y           Z
 ---------------------------------------------------------------------
      1          6           0       -0.945576    3.058282    1.027729
      2          6           0        0.097043    2.240011    0.278612
      3          8           0        1.215116    2.683994    0.074086
      4          7           0       -0.231553    0.933791   -0.106345
      5          6           0        0.748896    0.321984   -1.029732
      6          6           0        2.082042   -0.252903   -0.491598
      7          8           0        3.120324    0.180556   -0.978938
      8          7           0        2.094009   -1.414699    0.245808
      9          6           0        0.969729   -1.965884    0.980980
     10          6           0        3.377273   -2.058459    0.496724
     11          1           0       -0.413308    3.861773    1.536750
     12          1           0       -1.503052    2.467593    1.759750
     13          1           0       -1.664585    3.512175    0.336850
     14          1           0        0.287585   -0.479730   -1.615899
     15          1           0        1.061816    1.121122   -1.704336
     16          1           0        0.150641   -1.253726    1.010374
     17          1           0        0.621905   -2.913624    0.544316
     18          1           0        1.269088   -2.167508    2.017823
     19          1           0        3.294464   -3.135234    0.303701
     20          1           0        4.122658   -1.618551   -0.163470
     21          1           0        3.692948   -1.917792    1.539640
     22          6           0       -1.640965    0.662286   -0.452605
     23          1           0       -2.279039    1.427777   -0.014665
     24          1           0       -1.780199    0.723100   -1.540889
     25          6           0       -2.171081   -0.689846    0.022220
     26          1           0       -2.108880   -0.761289    1.121382
     27          1           0       -1.583836   -1.523992   -0.395718
     28          8           0       -3.513506   -0.760825   -0.411639
     29          6           0       -4.148438   -1.970759   -0.049544
     30          1           0       -5.171318   -1.925008   -0.429493
     31          1           0       -3.643327   -2.844322   -0.490093
     32          1           0       -4.179761   -2.104473    1.042949
 ---------------------------------------------------------------------
 Rotational constants (GHZ):      0.7524461      0.4337284      0.3049089
 Standard basis: 6-31G(d,p) (6D, 7F)
 There are   300 symmetry adapted basis functions of A   symmetry.
 Integral buffers will be    131072 words long.
 Raffenetti 2 integral format.
 Two-electron integral symmetry is turned on.
   300 basis functions,   518 primitive gaussians,   300 cartesian basis functions
    55 alpha electrons       55 beta electrons
       nuclear repulsion energy       965.7006632772 Hartrees.
 NAtoms=   32 NActive=   32 NUniq=   32 SFac= 1.00D+00 NAtFMM=   60 NAOKFM=F Big=F
 One-electron integrals computed using PRISM.
 NBasis=   300 RedAO= T  NBF=   300
 NBsUse=   300 1.00D-06 NBFU=   300
 Initial guess read from the read-write file.
 B after Tr=     0.000000    0.000000    0.000000
         Rot=    1.000000    0.000000    0.000000    0.000000 Ang=   0.00 deg.
 Initial guess orbital symmetries:
       Occupied  (A) (A) (A) (A) (A) (A) (A) (A) (A) (A) (A) (A)
                 (A) (A) (A) (A) (A) (A) (A) (A) (A) (A) (A) (A)
                 (A) (A) (A) (A) (A) (A) (A) (A) (A) (A) (A) (A)
                 (A) (A) (A) (A) (A) (A) (A) (A) (A) (A) (A) (A)
                 (A) (A) (A) (A) (A) (A) (A)
       Virtual   (A) (A) (A) (A) (A) (A) (A) (A) (A) (A) (A) (A)
                 (A) (A) (A) (A) (A) (A) (A) (A) (A) (A) (A) (A)
                 (A) (A) (A) (A) (A) (A) (A) (A) (A) (A) (A) (A)
                 (A) (A) (A) (A) (A) (A) (A) (A) (A) (A) (A) (A)
                 (A) (A) (A) (A) (A) (A) (A) (A) (A) (A) (A) (A)
                 (A) (A) (A) (A) (A) (A) (A) (A) (A) (A) (A) (A)
                 (A) (A) (A) (A) (A) (A) (A) (A) (A) (A) (A) (A)
                 (A) (A) (A) (A) (A) (A) (A) (A) (A) (A) (A) (A)
                 (A) (A) (A) (A) (A) (A) (A) (A) (A) (A) (A) (A)
                 (A) (A) (A) (A) (A) (A) (A) (A) (A) (A) (A) (A)
                 (A) (A) (A) (A) (A) (A) (A) (A) (A) (A) (A) (A)
                 (A) (A) (A) (A) (A) (A) (A) (A) (A) (A) (A) (A)
                 (A) (A) (A) (A) (A) (A) (A) (A) (A) (A) (A) (A)
                 (A) (A) (A) (A) (A) (A) (A) (A) (A) (A) (A) (A)
                 (A) (A) (A) (A) (A) (A) (A) (A) (A) (A) (A) (A)
                 (A) (A) (A) (A) (A) (A) (A) (A) (A) (A) (A) (A)
                 (A) (A) (A) (A) (A) (A) (A) (A) (A) (A) (A) (A)
                 (A) (A) (A) (A) (A) (A) (A) (A) (A) (A) (A) (A)
                 (A) (A) (A) (A) (A) (A) (A) (A) (A) (A) (A) (A)
                 (A) (A) (A) (A) (A) (A) (A) (A) (A) (A) (A) (A)
                 (A) (A) (A) (A) (A)
 Harris functional with IExCor=  402 diagonalized for initial guess.
 ExpMin= 1.61D-01 ExpMax= 5.48D+03 ExpMxC= 8.25D+02 IAcc=1 IRadAn=         1 AccDes= 0.00D+00
 HarFok:  IExCor=  402 AccDes= 0.00D+00 IRadAn=         1 IDoV= 1
 ScaDFX=  1.000000  1.000000  1.000000  1.000000
 FoFCou: FMM=F IPFlag=           0 FMFlag=      100000 FMFlg1=           0
         NFxFlg=           0 DoJE=T BraDBF=F KetDBF=T FulRan=T
         Omega=  0.000000  0.000000  1.000000  0.000000  0.000000 ICntrl=     500 IOpCl=  0
         NMat0=    1 NMatS0=    1 NMatT0=    0 NMatD0=    1 NMtDS0=    0 NMtDT0=    0
         I1Cent=           4 NGrid=           0.
 Petite list used in FoFCou.
