 Entering Gaussian System, Link 0=/data/opt/apps/g09-C01/g09
 Initial command:
 /data/opt/apps/g09-C01/l1.exe /tmp/g09-tuu61186-1150922c21e64fea8x/Gau-1151058.inp -scrdir=/tmp/g09-tuu61186-1150922c21e64fea8x/
 Entering Link 1 = /data/opt/apps/g09-C01/l1.exe PID=   1151065.
  
 Copyright (c) 1988,1990,1992,1993,1995,1998,2003,2009,2011,
            Gaussian, Inc.  All Rights Reserved.
  
 This is part of the Gaussian(R) 09 program.  It is based on
 the Gaussian(R) 03 system (copyright 2003, Gaussian, Inc.),
 the Gaussian(R) 98 system (copyright 1998, Gaussian, Inc.),
 the Gaussian(R) 94 system (copyright 1995, Gaussian, Inc.),
 the Gaussian 92(TM) system (copyright 1992, Gaussian, Inc.),
 the Gaussian 90(TM) system (copyright 1990, Gaussian, Inc.),
 the Gaussian 88(TM) system (copyright 1988, Gaussian, Inc.),
 the Gaussian 86(TM) system (copyright 1986, Carnegie Mellon
 University), and the Gaussian 82(TM) system (copyright 1983,
 Carnegie Mellon University). Gaussian is a federally registered
 trademark of Gaussian, Inc.
  
 This software contains proprietary and confidential information,
 including trade secrets, belonging to Gaussian, Inc.
  
 This software is provided under written license and may be
 used, copied, transmitted, or stored only in accord with that
 written license.
  
 The following legend is applicable only to US Government
 contracts under FAR:
  
                    RESTRICTED RIGHTS LEGEND
  
 Use, reproduction and disclosure by the US Government is
 subject to restrictions as set forth in subparagraphs (a)
 and (c) of the Commercial Computer Software - Restricted
 Rights clause in FAR 52.227-19.
  
 Gaussian, Inc.
 340 Quinnipiac St., Bldg. 40, Wallingford CT 06492
  
  
 ---------------------------------------------------------------
 Warning -- This program may not be used in any manner that
 competes with the business of Gaussian, Inc. or will provide
 assistance to any competitor of Gaussian, Inc.  The licensee
 of this program is prohibited from giving any competitor of
 Gaussian, Inc. access to this program.  By using this program,
 the user acknowledges that Gaussian, Inc. is engaged in the
 business of creating and licensing software in the field of
 computational chemistry and represents and warrants to the
 licensee that it is not a competitor of Gaussian, Inc. and that
 it will not use this program in any manner prohibited above.
 ---------------------------------------------------------------
  

 Cite this work as:
 Gaussian 09, Revision C.01,
 M. J. Frisch, G. W. Trucks, H. B. Schlegel, G. E. Scuseria, 
 M. A. Robb, J. R. Cheeseman, G. Scalmani, V. Barone, B. Mennucci, 
 G. A. Petersson, H. Nakatsuji, M. Caricato, X. Li, H. P. Hratchian, 
 A. F. Izmaylov, J. Bloino, G. Zheng, J. L. Sonnenberg, M. Hada, 
 M. Ehara, K. Toyota, R. Fukuda, J. Hasegawa, M. Ishida, T. Nakajima, 
 Y. Honda, O. Kitao, H. Nakai, T. Vreven, J. A. Montgomery, Jr., 
 J. E. Peralta, F. Ogliaro, M. Bearpark, J. J. Heyd, E. Brothers, 
 K. N. Kudin, V. N. Staroverov, T. Keith, R. Kobayashi, J. Normand, 
 K. Raghavachari, A. Rendell, J. C. Burant, S. S. Iyengar, J. Tomasi, 
 M. Cossi, N. Rega, J. M. Millam, M. Klene, J. E. Knox, J. B. Cross, 
 V. Bakken, C. Adamo, J. Jaramillo, R. Gomperts, R. E. Stratmann, 
 O. Yazyev, A. J. Austin, R. Cammi, C. Pomelli, J. W. Ochterski, 
 R. L. Martin, K. Morokuma, V. G. Zakrzewski, G. A. Voth, 
 P. Salvador, J. J. Dannenberg, S. Dapprich, A. D. Daniels, 
 O. Farkas, J. B. Foresman, J. V. Ortiz, J. Cioslowski, 
 and D. J. Fox, Gaussian, Inc., Wallingford CT, 2010.
 
 ******************************************
 Gaussian 09:  EM64L-G09RevC.01 23-Sep-2011
                24-Apr-2026 
 ******************************************
 %nprocshared=8
 Will use up to    8 processors via shared memory.
 %mem=14GB
 -----------------------------------
 # opt=modredundant b3lyp/6-31g(d,p)
 -----------------------------------
 1/14=-1,18=120,19=15,26=3,38=1/1,3;
 2/9=110,12=2,17=6,18=5,40=1/2;
 3/5=1,6=6,7=101,11=2,16=1,25=1,30=1,71=1,74=-5/1,2,3;
 4//1;
 5/5=2,38=5/2;
 6/7=2,8=2,9=2,10=2,28=1/1;
 7//1,2,3,16;
 1/14=-1,18=20,19=15/3(2);
 2/9=110/2;
 99//99;
 2/9=110/2;
 3/5=1,6=6,7=101,11=2,16=1,25=1,30=1,71=1,74=-5/1,2,3;
 4/5=5,16=3/1;
 5/5=2,38=5/2;
 7//1,2,3,16;
 1/14=-1,18=20,19=15/3(-5);
 2/9=110/2;
 6/7=2,8=2,9=2,10=2,19=2,28=1/1;
 99/9=1/99;
 ---------------
 QM dihedral opt
 ---------------
 Charge =  0 Multiplicity = 1
 Symbolic Z-Matrix:
 C                     1.19665   2.85018  -0.74184 
 C                     0.01521   2.0828   -0.16796 
 O                    -1.13461   2.48162  -0.35426 
 N                     0.27808   0.95826   0.57874 
 C                    -0.86235   0.2889    1.21107 
 C                    -1.37887  -0.93268   0.42605 
 O                    -0.668    -1.93902   0.37219 
 N                    -2.61886  -0.88296  -0.14307 
 C                    -3.49683   0.28426  -0.18304 
 C                    -3.1493   -2.09419  -0.75874 
 H                     0.79307   3.61928  -1.39932 
 H                     1.88237   2.21235  -1.3056 
 H                     1.7719    3.33577   0.05393 
 H                    -0.52439  -0.11842   2.16815 
 H                    -1.62644   1.03924   1.40121 
 H                    -2.92315   1.2089   -0.13333 
 H                    -4.03088   0.28092  -1.13861 
 H                    -4.24672   0.25363   0.61919 
 H                    -3.30009  -1.94425  -1.83472 
 H                    -2.44014  -2.90456  -0.60248 
 H                    -4.11514  -2.35363  -0.30881 
 C                     1.632     0.46647   0.84575 
 H                     2.33131   1.30521   0.87631 
 H                     1.6416    0.01188   1.8404 
 C                     2.14779  -0.55834  -0.16828 
 H                     2.055    -0.15942  -1.19372 
 H                     1.54961  -1.47573  -0.11031 
 O                     3.5065   -0.79196   0.15968 
 C                     4.089    -1.81621  -0.61887 
 H                     5.12352  -1.92933  -0.28553 
 H                     3.56486  -2.77536  -0.49038 
 H                     4.0882   -1.56574  -1.69174 
 
 The following ModRedundant input section has been read:
 D       2       4       5       6 F                                           
 D       4       5       6       8 S  36 10.000                                

 GradGradGradGradGradGradGradGradGradGradGradGradGradGradGradGradGradGrad
 Berny optimization.
 Initialization pass.
                           ----------------------------
                           !    Initial Parameters    !
                           ! (Angstroms and Degrees)  !
 --------------------------                            --------------------------
 ! Name  Definition              Value          Derivative Info.                !
 --------------------------------------------------------------------------------
 ! R1    R(1,2)                  1.5212         estimate D2E/DX2                !
 ! R2    R(1,11)                 1.0893         estimate D2E/DX2                !
 ! R3    R(1,12)                 1.0931         estimate D2E/DX2                !
 ! R4    R(1,13)                 1.0954         estimate D2E/DX2                !
 ! R5    R(2,3)                  1.2312         estimate D2E/DX2                !
 ! R6    R(2,4)                  1.3752         estimate D2E/DX2                !
 ! R7    R(4,5)                  1.4658         estimate D2E/DX2                !
 ! R8    R(4,22)                 1.465          estimate D2E/DX2                !
 ! R9    R(5,6)                  1.5412         estimate D2E/DX2                !
 ! R10   R(5,14)                 1.0937         estimate D2E/DX2                !
 ! R11   R(5,15)                 1.0877         estimate D2E/DX2                !
 ! R12   R(6,7)                  1.2333         estimate D2E/DX2                !
 ! R13   R(6,8)                  1.3653         estimate D2E/DX2                !
 ! R14   R(8,9)                  1.4611         estimate D2E/DX2                !
 ! R15   R(8,10)                 1.4586         estimate D2E/DX2                !
 ! R16   R(9,16)                 1.0893         estimate D2E/DX2                !
 ! R17   R(9,17)                 1.0947         estimate D2E/DX2                !
 ! R18   R(9,18)                 1.0986         estimate D2E/DX2                !
 ! R19   R(10,19)                1.0968         estimate D2E/DX2                !
 ! R20   R(10,20)                1.0881         estimate D2E/DX2                !
 ! R21   R(10,21)                1.0966         estimate D2E/DX2                !
 ! R22   R(22,23)                1.0925         estimate D2E/DX2                !
 ! R23   R(22,24)                1.0936         estimate D2E/DX2                !
 ! R24   R(22,25)                1.5312         estimate D2E/DX2                !
 ! R25   R(25,26)                1.1042         estimate D2E/DX2                !
 ! R26   R(25,27)                1.0967         estimate D2E/DX2                !
 ! R27   R(25,28)                1.4171         estimate D2E/DX2                !
 ! R28   R(28,29)                1.4123         estimate D2E/DX2                !
 ! R29   R(29,30)                1.0928         estimate D2E/DX2                !
 ! R30   R(29,31)                1.1005         estimate D2E/DX2                !
 ! R31   R(29,32)                1.1017         estimate D2E/DX2                !
 ! A1    A(2,1,11)             107.2251         estimate D2E/DX2                !
 ! A2    A(2,1,12)             112.7948         estimate D2E/DX2                !
 ! A3    A(2,1,13)             110.9416         estimate D2E/DX2                !
 ! A4    A(11,1,12)            109.4565         estimate D2E/DX2                !
 ! A5    A(11,1,13)            108.6642         estimate D2E/DX2                !
 ! A6    A(12,1,13)            107.6916         estimate D2E/DX2                !
 ! A7    A(1,2,3)              120.3197         estimate D2E/DX2                !
 ! A8    A(1,2,4)              117.9618         estimate D2E/DX2                !
 ! A9    A(3,2,4)              121.7058         estimate D2E/DX2                !
 ! A10   A(2,4,5)              117.3181         estimate D2E/DX2                !
 ! A11   A(2,4,22)             123.3748         estimate D2E/DX2                !
 ! A12   A(5,4,22)             119.1515         estimate D2E/DX2                !
 ! A13   A(4,5,6)              113.7641         estimate D2E/DX2                !
 ! A14   A(4,5,14)             107.8883         estimate D2E/DX2                !
 ! A15   A(4,5,15)             107.8762         estimate D2E/DX2                !
 ! A16   A(6,5,14)             104.7212         estimate D2E/DX2                !
 ! A17   A(6,5,15)             113.6038         estimate D2E/DX2                !
 ! A18   A(14,5,15)            108.7251         estimate D2E/DX2                !
 ! A19   A(5,6,7)              118.4141         estimate D2E/DX2                !
 ! A20   A(5,6,8)              119.1995         estimate D2E/DX2                !
 ! A21   A(7,6,8)              122.3456         estimate D2E/DX2                !
 ! A22   A(6,8,9)              125.8912         estimate D2E/DX2                !
 ! A23   A(6,8,10)             118.4249         estimate D2E/DX2                !
 ! A24   A(9,8,10)             115.6783         estimate D2E/DX2                !
 ! A25   A(8,9,16)             111.1252         estimate D2E/DX2                !
 ! A26   A(8,9,17)             108.3359         estimate D2E/DX2                !
 ! A27   A(8,9,18)             111.5879         estimate D2E/DX2                !
 ! A28   A(16,9,17)            107.4194         estimate D2E/DX2                !
 ! A29   A(16,9,18)            110.4779         estimate D2E/DX2                !
 ! A30   A(17,9,18)            107.7183         estimate D2E/DX2                !
 ! A31   A(8,10,19)            110.5213         estimate D2E/DX2                !
 ! A32   A(8,10,20)            108.7126         estimate D2E/DX2                !
 ! A33   A(8,10,21)            110.0947         estimate D2E/DX2                !
 ! A34   A(19,10,20)           109.4078         estimate D2E/DX2                !
 ! A35   A(19,10,21)           108.2854         estimate D2E/DX2                !
 ! A36   A(20,10,21)           109.8095         estimate D2E/DX2                !
 ! A37   A(4,22,23)            109.8135         estimate D2E/DX2                !
 ! A38   A(4,22,24)            108.265          estimate D2E/DX2                !
 ! A39   A(4,22,25)            114.5374         estimate D2E/DX2                !
 ! A40   A(23,22,24)           106.7424         estimate D2E/DX2                !
 ! A41   A(23,22,25)           108.466          estimate D2E/DX2                !
 ! A42   A(24,22,25)           108.7321         estimate D2E/DX2                !
 ! A43   A(22,25,26)           110.1761         estimate D2E/DX2                !
 ! A44   A(22,25,27)           109.9447         estimate D2E/DX2                !
 ! A45   A(22,25,28)           106.2633         estimate D2E/DX2                !
 ! A46   A(26,25,27)           107.7854         estimate D2E/DX2                !
 ! A47   A(26,25,28)           110.7966         estimate D2E/DX2                !
 ! A48   A(27,25,28)           111.8889         estimate D2E/DX2                !
 ! A49   A(25,28,29)           112.7953         estimate D2E/DX2                !
 ! A50   A(28,29,30)           107.3001         estimate D2E/DX2                !
 ! A51   A(28,29,31)           111.794          estimate D2E/DX2                !
 ! A52   A(28,29,32)           111.8174         estimate D2E/DX2                !
 ! A53   A(30,29,31)           108.9684         estimate D2E/DX2                !
 ! A54   A(30,29,32)           108.7406         estimate D2E/DX2                !
 ! A55   A(31,29,32)           108.1486         estimate D2E/DX2                !
 ! D1    D(11,1,2,3)            -8.4712         estimate D2E/DX2                !
 ! D2    D(11,1,2,4)           172.8039         estimate D2E/DX2                !
 ! D3    D(12,1,2,3)          -129.0398         estimate D2E/DX2                !
 ! D4    D(12,1,2,4)            52.2353         estimate D2E/DX2                !
 ! D5    D(13,1,2,3)           110.0441         estimate D2E/DX2                !
 ! D6    D(13,1,2,4)           -68.6808         estimate D2E/DX2                !
 ! D7    D(1,2,4,5)            175.3835         estimate D2E/DX2                !
 ! D8    D(1,2,4,22)            -0.0369         estimate D2E/DX2                !
 ! D9    D(3,2,4,5)             -3.3227         estimate D2E/DX2                !
 ! D10   D(3,2,4,22)          -178.7431         estimate D2E/DX2                !
 ! D11   D(2,4,5,6)             98.6699         Frozen                          !
 ! D12   D(2,4,5,14)          -145.6162         estimate D2E/DX2                !
 ! D13   D(2,4,5,15)           -28.3226         estimate D2E/DX2                !
 ! D14   D(22,4,5,6)           -85.7088         estimate D2E/DX2                !
 ! D15   D(22,4,5,14)           30.0051         estimate D2E/DX2                !
 ! D16   D(22,4,5,15)          147.2988         estimate D2E/DX2                !
 ! D17   D(2,4,22,23)           30.5312         estimate D2E/DX2                !
 ! D18   D(2,4,22,24)          146.7214         estimate D2E/DX2                !
 ! D19   D(2,4,22,25)          -91.7836         estimate D2E/DX2                !
 ! D20   D(5,4,22,23)         -144.8096         estimate D2E/DX2                !
 ! D21   D(5,4,22,24)          -28.6195         estimate D2E/DX2                !
 ! D22   D(5,4,22,25)           92.8755         estimate D2E/DX2                !
 ! D23   D(4,5,6,7)             69.1558         estimate D2E/DX2                !
 ! D24   D(4,5,6,8)           -113.1119         Scan                            !
 ! D25   D(14,5,6,7)           -48.4054         estimate D2E/DX2                !
 ! D26   D(14,5,6,8)           129.3269         estimate D2E/DX2                !
 ! D27   D(15,5,6,7)          -166.8976         estimate D2E/DX2                !
 ! D28   D(15,5,6,8)            10.8347         estimate D2E/DX2                !
 ! D29   D(5,6,8,9)              5.5423         estimate D2E/DX2                !
 ! D30   D(5,6,8,10)          -173.5647         estimate D2E/DX2                !
 ! D31   D(7,6,8,9)           -176.8186         estimate D2E/DX2                !
 ! D32   D(7,6,8,10)             4.0744         estimate D2E/DX2                !
 ! D33   D(6,8,9,16)            26.2546         estimate D2E/DX2                !
 ! D34   D(6,8,9,17)           144.0391         estimate D2E/DX2                !
 ! D35   D(6,8,9,18)           -97.5406         estimate D2E/DX2                !
 ! D36   D(10,8,9,16)         -154.6169         estimate D2E/DX2                !
 ! D37   D(10,8,9,17)          -36.8324         estimate D2E/DX2                !
 ! D38   D(10,8,9,18)           81.588          estimate D2E/DX2                !
 ! D39   D(6,8,10,19)         -116.8445         estimate D2E/DX2                !
 ! D40   D(6,8,10,20)            3.2478         estimate D2E/DX2                !
 ! D41   D(6,8,10,21)          123.5739         estimate D2E/DX2                !
 ! D42   D(9,8,10,19)           63.9583         estimate D2E/DX2                !
 ! D43   D(9,8,10,20)         -175.9494         estimate D2E/DX2                !
 ! D44   D(9,8,10,21)          -55.6233         estimate D2E/DX2                !
 ! D45   D(4,22,25,26)          53.2043         estimate D2E/DX2                !
 ! D46   D(4,22,25,27)         -65.4502         estimate D2E/DX2                !
 ! D47   D(4,22,25,28)         173.2854         estimate D2E/DX2                !
 ! D48   D(23,22,25,26)        -69.8397         estimate D2E/DX2                !
 ! D49   D(23,22,25,27)        171.5058         estimate D2E/DX2                !
 ! D50   D(23,22,25,28)         50.2415         estimate D2E/DX2                !
 ! D51   D(24,22,25,26)        174.4429         estimate D2E/DX2                !
 ! D52   D(24,22,25,27)         55.7884         estimate D2E/DX2                !
 ! D53   D(24,22,25,28)        -65.476          estimate D2E/DX2                !
 ! D54   D(22,25,28,29)        174.4893         estimate D2E/DX2                !
 ! D55   D(26,25,28,29)        -65.833          estimate D2E/DX2                !
 ! D56   D(27,25,28,29)         54.4797         estimate D2E/DX2                !
 ! D57   D(25,28,29,30)       -179.2819         estimate D2E/DX2                !
 ! D58   D(25,28,29,31)        -59.8627         estimate D2E/DX2                !
 ! D59   D(25,28,29,32)         61.5642         estimate D2E/DX2                !
 --------------------------------------------------------------------------------
 Trust Radius=3.00D-01 FncErr=1.00D-07 GrdErr=1.00D-06
 Number of optimizations in scan=  37
 Number of steps in this run=    155 maximum allowed number of steps=    192.
 GradGradGradGradGradGradGradGradGradGradGradGradGradGradGradGradGradGrad

                          Input orientation:                          
 ---------------------------------------------------------------------
 Center     Atomic      Atomic             Coordinates (Angstroms)
 Number     Number       Type             X           Y           Z
 ---------------------------------------------------------------------
      1          6           0        1.196647    2.850176   -0.741839
      2          6           0        0.015206    2.082797   -0.167957
      3          8           0       -1.134609    2.481620   -0.354259
      4          7           0        0.278079    0.958257    0.578735
      5          6           0       -0.862352    0.288896    1.211070
      6          6           0       -1.378866   -0.932679    0.426052
      7          8           0       -0.668002   -1.939023    0.372189
      8          7           0       -2.618860   -0.882959   -0.143074
      9          6           0       -3.496825    0.284263   -0.183037
     10          6           0       -3.149297   -2.094191   -0.758736
     11          1           0        0.793073    3.619279   -1.399315
     12          1           0        1.882374    2.212353   -1.305602
     13          1           0        1.771898    3.335775    0.053934
     14          1           0       -0.524385   -0.118415    2.168149
     15          1           0       -1.626444    1.039243    1.401214
     16          1           0       -2.923154    1.208896   -0.133327
     17          1           0       -4.030884    0.280919   -1.138612
     18          1           0       -4.246722    0.253631    0.619187
     19          1           0       -3.300087   -1.944247   -1.834721
     20          1           0       -2.440144   -2.904559   -0.602481
     21          1           0       -4.115141   -2.353627   -0.308812
     22          6           0        1.631998    0.466469    0.845749
     23          1           0        2.331310    1.305209    0.876307
     24          1           0        1.641602    0.011876    1.840396
     25          6           0        2.147794   -0.558336   -0.168283
     26          1           0        2.054998   -0.159417   -1.193724
     27          1           0        1.549612   -1.475734   -0.110309
     28          8           0        3.506504   -0.791962    0.159675
     29          6           0        4.089003   -1.816214   -0.618869
     30          1           0        5.123517   -1.929326   -0.285525
     31          1           0        3.564856   -2.775364   -0.490377
     32          1           0        4.088197   -1.565744   -1.691736
 ---------------------------------------------------------------------
                    Distance matrix (angstroms):
                    1          2          3          4          5
     1  C    0.000000
     2  C    1.521188   0.000000
     3  O    2.391821   1.231196   0.000000
     4  N    2.483353   1.375224   2.277455   0.000000
     5  C    3.822759   2.426913   2.707844   1.465768   0.000000
     6  C    4.723053   3.374815   3.510838   2.518813   1.541196
     7  O    5.258745   4.115042   4.504168   3.054826   2.388539
     8  N    5.371490   3.966690   3.683476   3.507612   2.508440
     9  C    5.378183   3.945797   3.230752   3.909535   2.980605
    10  C    6.582878   5.273550   5.016036   4.780499   3.845693
    11  H    1.089342   2.117096   2.470297   3.355434   4.543786
    12  H    1.093100   2.190282   3.174861   2.774391   4.191282
    13  H    1.095434   2.169137   3.056793   2.856484   4.190669
    14  H    4.499168   3.254825   3.673567   2.080723   1.093675
    15  H    3.980201   2.499263   2.324659   2.076111   1.087664
    16  H    4.476254   3.065756   2.206248   3.289034   2.626920
    17  H    5.838287   4.534289   3.721116   4.687774   3.944701
    18  H    6.182613   4.704198   3.949276   4.579515   3.435918
    19  H    6.663445   5.475980   5.144838   5.201209   4.495144
    20  H    6.809012   5.575955   5.547699   4.868815   3.997068
    21  H    7.448635   6.063123   5.680251   5.572854   4.457982
    22  C    2.896899   2.500826   3.626978   1.465008   2.527207
    23  H    2.508541   2.656966   3.861454   2.103493   3.368150
    24  H    3.862884   3.311700   4.315495   2.084855   2.596647
    25  C    3.584913   3.394630   4.477733   2.520699   3.417806
    26  H    3.162059   3.200074   4.225325   2.747407   3.807223
    27  H    4.385990   3.875676   4.788027   2.831235   3.267649
    28  O    4.406057   4.534396   5.702666   3.696161   4.621752
    29  C    5.491452   5.656981   6.769602   4.863649   5.682964
    30  H    6.202594   6.496599   7.656717   5.706431   6.556747
    31  H    6.108874   6.025421   7.052615   5.087812   5.646661
    32  H    5.363181   5.676531   6.741491   5.103197   6.031078
                    6          7          8          9         10
     6  C    0.000000
     7  O    1.233271   0.000000
     8  N    1.365270   2.277414   0.000000
     9  C    2.517476   3.640538   1.461105   0.000000
    10  C    2.426367   2.731281   1.458590   2.471689   0.000000
    11  H    5.363731   6.013958   5.787018   5.568203   6.971109
    12  H    4.850313   5.152992   5.585117   5.823527   6.645532
    13  H    5.318410   5.820472   6.092231   6.093219   7.373135
    14  H    2.104297   2.561389   3.211402   3.811250   4.400058
    15  H    2.213755   3.293565   2.657927   2.564795   4.099131
    16  H    2.698902   3.905208   2.113894   1.089273   3.369371
    17  H    3.309712   4.303445   2.083151   1.094693   2.561767
    18  H    3.109539   4.204281   2.126691   1.098566   2.935180
    19  H    3.134558   3.434873   2.109993   2.780831   1.096797
    20  H    2.464245   2.241144   2.080832   3.385424   1.088122
    21  H    3.169593   3.538139   2.104564   2.712305   1.096628
    22  C    3.346500   3.361644   4.568208   5.234159   5.656159
    23  H    4.356177   4.446915   5.507395   6.010965   6.653295
    24  H    3.466379   3.360939   4.783975   5.529187   5.843263
    25  C    3.595928   3.182313   4.777762   5.707181   5.546770
    26  H    3.874665   3.610237   4.844825   5.660484   5.569313
    27  H    3.026314   2.316302   4.210536   5.345036   4.783586
    28  O    4.894650   4.334445   6.133516   7.093823   6.843900
    29  C    5.636496   4.860697   6.789166   7.883320   7.244986
    30  H    6.616693   5.828754   7.814063   8.900605   8.287977
    31  H    5.354971   4.400065   6.476122   7.702150   6.753952
    32  H    5.896997   5.198130   6.917309   7.951808   7.316493
                   11         12         13         14         15
    11  H    0.000000
    12  H    1.781797   0.000000
    13  H    1.774938   1.767094   0.000000
    14  H    5.332246   4.826170   4.655561   0.000000
    15  H    4.511498   4.584195   4.317169   1.772821   0.000000
    16  H    4.606844   5.047203   5.157732   3.579475   2.016198
    17  H    5.872238   6.222937   6.665327   4.836287   3.578701
    18  H    6.387603   6.716191   6.785493   4.048888   2.845103
    19  H    6.920720   6.664472   7.561130   5.202033   4.708882
    20  H    7.324555   6.735082   7.557377   4.371398   4.497830
    21  H    7.807392   7.603417   8.195005   4.901534   4.541956
    22  C    3.960343   2.781926   2.979842   2.596309   3.354706
    23  H    3.591594   2.405240   2.261070   3.442464   4.001260
    24  H    4.922305   3.846735   3.775808   2.194515   3.453764
    25  C    4.561050   3.006769   3.918517   3.576728   4.388673
    26  H    3.989143   2.380674   3.721984   4.237580   4.660848
    27  H    5.309712   3.891201   4.819440   3.366771   4.324019
    28  O    5.408531   3.716281   4.478644   4.553647   5.589444
    29  C    6.404439   4.644369   5.688992   5.650959   6.700799
    30  H    7.126029   5.357151   6.250590   6.418622   7.564355
    31  H    7.028542   5.326599   6.391947   5.554190   6.714085
    32  H    6.150432   4.391898   5.695392   6.186226   7.000673
                   16         17         18         19         20
    16  H    0.000000
    17  H    1.760342   0.000000
    18  H    1.797398   1.771211   0.000000
    19  H    3.602656   2.443357   3.427601   0.000000
    20  H    4.168203   3.600717   3.838015   1.783288   0.000000
    21  H    3.760744   2.763422   2.770612   1.777724   1.787563
    22  C    4.717965   6.003362   5.886933   6.109168   5.481199
    23  H    5.351451   6.751784   6.666516   7.044237   6.532667
    24  H    5.115216   6.412797   6.018485   6.461671   5.579775
    25  C    5.370181   6.310463   6.493784   5.863205   5.171312
    26  H    5.270552   6.102040   6.570307   5.680971   5.300158
    27  H    5.216647   5.940132   6.092648   5.168431   4.266372
    28  O    6.740162   7.723266   7.836895   7.185754   6.356616
    29  C    7.652280   8.402420   8.677635   7.489549   6.619254
    30  H    8.638317   9.456003   9.663601   8.564890   7.632857
    31  H    7.622079   8.213181   8.451431   7.044534   6.007436
    32  H    7.699760   8.344794   8.838629   7.399355   6.752639
                   21         22         23         24         25
    21  H    0.000000
    22  C    6.505041   0.000000
    23  H    7.506552   1.092454   0.000000
    24  H    6.584435   1.093650   1.754387   0.000000
    25  C    6.516684   1.531186   2.144212   2.148526   0.000000
    26  H    6.608195   2.174882   2.550785   3.066940   1.104209
    27  H    5.735811   2.166330   3.052557   2.454933   1.096723
    28  O    7.794084   2.359686   2.508539   2.636065   1.417120
    29  C    8.227571   3.659593   3.881793   3.921692   2.356603
    30  H    9.248426   4.382958   4.428147   4.517913   3.278458
    31  H    7.693711   4.003830   4.476666   4.110975   2.650853
    32  H    8.356315   4.074510   4.233659   4.577190   2.664760
                   26         27         28         29         30
    26  H    0.000000
    27  H    1.778171   0.000000
    28  O    2.082948   2.090421   0.000000
    29  C    2.685630   2.612100   1.412278   0.000000
    30  H    3.656940   3.606833   2.026458   1.092763   0.000000
    31  H    3.101217   2.427900   2.088027   1.100549   1.785264
    32  H    2.521839   2.992228   2.089217   1.101717   1.783678
                   31         32
    31  H    0.000000
    32  H    1.783348   0.000000
 Stoichiometry    C9H18N2O3
 Framework group  C1[X(C9H18N2O3)]
 Deg. of freedom    90
 Full point group                 C1      NOp   1
 Largest Abelian subgroup         C1      NOp   1
 Largest concise Abelian subgroup C1      NOp   1
                         Standard orientation:                         
 ---------------------------------------------------------------------
 Center     Atomic      Atomic             Coordinates (Angstroms)
 Number     Number       Type             X           Y           Z
 ---------------------------------------------------------------------
      1          6           0        1.196647    2.850176   -0.741839
      2          6           0        0.015206    2.082797   -0.167957
      3          8           0       -1.134609    2.481620   -0.354259
      4          7           0        0.278079    0.958257    0.578735
      5          6           0       -0.862352    0.288896    1.211070
      6          6           0       -1.378866   -0.932679    0.426052
      7          8           0       -0.668002   -1.939023    0.372189
      8          7           0       -2.618860   -0.882959   -0.143074
      9          6           0       -3.496825    0.284263   -0.183037
     10          6           0       -3.149297   -2.094191   -0.758736
     11          1           0        0.793073    3.619279   -1.399315
     12          1           0        1.882374    2.212353   -1.305602
     13          1           0        1.771898    3.335775    0.053934
     14          1           0       -0.524385   -0.118415    2.168149
     15          1           0       -1.626444    1.039243    1.401214
     16          1           0       -2.923154    1.208896   -0.133327
     17          1           0       -4.030884    0.280919   -1.138612
     18          1           0       -4.246722    0.253631    0.619187
     19          1           0       -3.300087   -1.944247   -1.834721
     20          1           0       -2.440144   -2.904559   -0.602481
     21          1           0       -4.115141   -2.353627   -0.308812
     22          6           0        1.631998    0.466469    0.845749
     23          1           0        2.331310    1.305209    0.876307
     24          1           0        1.641602    0.011876    1.840396
     25          6           0        2.147794   -0.558336   -0.168283
     26          1           0        2.054998   -0.159417   -1.193724
     27          1           0        1.549612   -1.475734   -0.110309
     28          8           0        3.506504   -0.791962    0.159675
     29          6           0        4.089003   -1.816214   -0.618869
     30          1           0        5.123517   -1.929326   -0.285525
     31          1           0        3.564856   -2.775364   -0.490377
     32          1           0        4.088197   -1.565744   -1.691736
 ---------------------------------------------------------------------
 Rotational constants (GHZ):      0.8384988      0.4339864      0.3151658
 Standard basis: 6-31G(d,p) (6D, 7F)
 There are   300 symmetry adapted basis functions of A   symmetry.
 Integral buffers will be    131072 words long.
 Raffenetti 2 integral format.
 Two-electron integral symmetry is turned on.
   300 basis functions,   518 primitive gaussians,   300 cartesian basis functions
    55 alpha electrons       55 beta electrons
       nuclear repulsion energy       974.1704509355 Hartrees.
 NAtoms=   32 NActive=   32 NUniq=   32 SFac= 1.00D+00 NAtFMM=   60 NAOKFM=F Big=F
 One-electron integrals computed using PRISM.
 NBasis=   300 RedAO= T  NBF=   300
 NBsUse=   300 1.00D-06 NBFU=   300
 Harris functional with IExCor=  402 diagonalized for initial guess.
 ExpMin= 1.61D-01 ExpMax= 5.48D+03 ExpMxC= 8.25D+02 IAcc=1 IRadAn=         1 AccDes= 0.00D+00
 HarFok:  IExCor=  402 AccDes= 0.00D+00 IRadAn=         1 IDoV= 1
 ScaDFX=  1.000000  1.000000  1.000000  1.000000
 FoFCou: FMM=F IPFlag=           0 FMFlag=      100000 FMFlg1=           0
         NFxFlg=           0 DoJE=T BraDBF=F KetDBF=T FulRan=T
         Omega=  0.000000  0.000000  1.000000  0.000000  0.000000 ICntrl=     500 IOpCl=  0
         NMat0=    1 NMatS0=    1 NMatT0=    0 NMatD0=    1 NMtDS0=    0 NMtDT0=    0
         I1Cent=           4 NGrid=           0.
 Petite list used in FoFCou.
 Initial guess orbital symmetries:
       Occupied  (A) (A) (A) (A) (A) (A) (A) (A) (A) (A) (A) (A)
                 (A) (A) (A) (A) (A) (A) (A) (A) (A) (A) (A) (A)
                 (A) (A) (A) (A) (A) (A) (A) (A) (A) (A) (A) (A)
                 (A) (A) (A) (A) (A) (A) (A) (A) (A) (A) (A) (A)
                 (A) (A) (A) (A) (A) (A) (A)
       Virtual   (A) (A) (A) (A) (A) (A) (A) (A) (A) (A) (A) (A)
                 (A) (A) (A) (A) (A) (A) (A) (A) (A) (A) (A) (A)
                 (A) (A) (A) (A) (A) (A) (A) (A) (A) (A) (A) (A)
                 (A) (A) (A) (A) (A) (A) (A) (A) (A) (A) (A) (A)
                 (A) (A) (A) (A) (A) (A) (A) (A) (A) (A) (A) (A)
                 (A) (A) (A) (A) (A) (A) (A) (A) (A) (A) (A) (A)
                 (A) (A) (A) (A) (A) (A) (A) (A) (A) (A) (A) (A)
                 (A) (A) (A) (A) (A) (A) (A) (A) (A) (A) (A) (A)
                 (A) (A) (A) (A) (A) (A) (A) (A) (A) (A) (A) (A)
                 (A) (A) (A) (A) (A) (A) (A) (A) (A) (A) (A) (A)
                 (A) (A) (A) (A) (A) (A) (A) (A) (A) (A) (A) (A)
                 (A) (A) (A) (A) (A) (A) (A) (A) (A) (A) (A) (A)
                 (A) (A) (A) (A) (A) (A) (A) (A) (A) (A) (A) (A)
                 (A) (A) (A) (A) (A) (A) (A) (A) (A) (A) (A) (A)
                 (A) (A) (A) (A) (A) (A) (A) (A) (A) (A) (A) (A)
                 (A) (A) (A) (A) (A) (A) (A) (A) (A) (A) (A) (A)
                 (A) (A) (A) (A) (A) (A) (A) (A) (A) (A) (A) (A)
                 (A) (A) (A) (A) (A) (A) (A) (A) (A) (A) (A) (A)
                 (A) (A) (A) (A) (A) (A) (A) (A) (A) (A) (A) (A)
                 (A) (A) (A) (A) (A) (A) (A) (A) (A) (A) (A) (A)
                 (A) (A) (A) (A) (A)
 The electronic state of the initial guess is 1-A.
 Requested convergence on RMS density matrix=1.00D-08 within 128 cycles.
 Requested convergence on MAX density matrix=1.00D-06.
 Requested convergence on             energy=1.00D-06.
 No special actions if energy rises.
 Keep R1 ints in memory in canonical form, NReq=1033484498.
 Integral accuracy reduced to 1.0D-05 until final iterations.
 Initial convergence to 1.0D-05 achieved.  Increase integral accuracy.
 SCF Done:  E(RB3LYP) =  -688.998985353     A.U. after   14 cycles
             Convg  =    0.7011D-08             -V/T =  2.0094

 **********************************************************************

            Population analysis using the SCF density.

 **********************************************************************

 Orbital symmetries:
       Occupied  (A) (A) (A) (A) (A) (A) (A) (A) (A) (A) (A) (A)
                 (A) (A) (A) (A) (A) (A) (A) (A) (A) (A) (A) (A)
                 (A) (A) (A) (A) (A) (A) (A) (A) (A) (A) (A) (A)
                 (A) (A) (A) (A) (A) (A) (A) (A) (A) (A) (A) (A)
                 (A) (A) (A) (A) (A) (A) (A)
       Virtual   (A) (A) (A) (A) (A) (A) (A) (A) (A) (A) (A) (A)
                 (A) (A) (A) (A) (A) (A) (A) (A) (A) (A) (A) (A)
                 (A) (A) (A) (A) (A) (A) (A) (A) (A) (A) (A) (A)
                 (A) (A) (A) (A) (A) (A) (A) (A) (A) (A) (A) (A)
                 (A) (A) (A) (A) (A) (A) (A) (A) (A) (A) (A) (A)
                 (A) (A) (A) (A) (A) (A) (A) (A) (A) (A) (A) (A)
                 (A) (A) (A) (A) (A) (A) (A) (A) (A) (A) (A) (A)
                 (A) (A) (A) (A) (A) (A) (A) (A) (A) (A) (A) (A)
                 (A) (A) (A) (A) (A) (A) (A) (A) (A) (A) (A) (A)
                 (A) (A) (A) (A) (A) (A) (A) (A) (A) (A) (A) (A)
                 (A) (A) (A) (A) (A) (A) (A) (A) (A) (A) (A) (A)
                 (A) (A) (A) (A) (A) (A) (A) (A) (A) (A) (A) (A)
                 (A) (A) (A) (A) (A) (A) (A) (A) (A) (A) (A) (A)
                 (A) (A) (A) (A) (A) (A) (A) (A) (A) (A) (A) (A)
                 (A) (A) (A) (A) (A) (A) (A) (A) (A) (A) (A) (A)
                 (A) (A) (A) (A) (A) (A) (A) (A) (A) (A) (A) (A)
                 (A) (A) (A) (A) (A) (A) (A) (A) (A) (A) (A) (A)
                 (A) (A) (A) (A) (A) (A) (A) (A) (A) (A) (A) (A)
                 (A) (A) (A) (A) (A) (A) (A) (A) (A) (A) (A) (A)
                 (A) (A) (A) (A) (A) (A) (A) (A) (A) (A) (A) (A)
                 (A) (A) (A) (A) (A)
 The electronic state is 1-A.
 Alpha  occ. eigenvalues --  -19.14589 -19.11429 -19.10708 -14.37073 -14.36735
 Alpha  occ. eigenvalues --  -10.28964 -10.28324 -10.22737 -10.22467 -10.22425
 Alpha  occ. eigenvalues --  -10.22378 -10.21251 -10.21139 -10.19219  -1.03572
 Alpha  occ. eigenvalues --   -1.02841  -1.02601  -0.93405  -0.92868  -0.77067
 Alpha  occ. eigenvalues --   -0.75303  -0.72401  -0.71007  -0.68063  -0.67167
 Alpha  occ. eigenvalues --   -0.61719  -0.55980  -0.53275  -0.51690  -0.49376
 Alpha  occ. eigenvalues --   -0.49181  -0.47640  -0.46974  -0.46720  -0.45869
 Alpha  occ. eigenvalues --   -0.44685  -0.43677  -0.41936  -0.41182  -0.40742
 Alpha  occ. eigenvalues --   -0.40264  -0.40014  -0.39644  -0.38625  -0.37370
 Alpha  occ. eigenvalues --   -0.37230  -0.36062  -0.35295  -0.35249  -0.31753
 Alpha  occ. eigenvalues --   -0.26224  -0.25297  -0.25078  -0.23697  -0.23363
 Alpha virt. eigenvalues --    0.01543   0.02493   0.08667   0.09490   0.09891
 Alpha virt. eigenvalues --    0.10962   0.13243   0.13607   0.13964   0.14902
 Alpha virt. eigenvalues --    0.14957   0.15713   0.16620   0.16726   0.17218
 Alpha virt. eigenvalues --    0.17568   0.17693   0.18236   0.18887   0.20322
 Alpha virt. eigenvalues --    0.21146   0.21439   0.22119   0.22607   0.23113
 Alpha virt. eigenvalues --    0.23248   0.26434   0.28240   0.29094   0.32990
 Alpha virt. eigenvalues --    0.34877   0.38205   0.41476   0.47043   0.48260
 Alpha virt. eigenvalues --    0.50586   0.50857   0.51115   0.51986   0.53393
 Alpha virt. eigenvalues --    0.53837   0.54795   0.56500   0.56892   0.57536
 Alpha virt. eigenvalues --    0.60199   0.61160   0.62181   0.63627   0.64079
 Alpha virt. eigenvalues --    0.66492   0.67270   0.69427   0.69745   0.71239
 Alpha virt. eigenvalues --    0.72222   0.72813   0.75185   0.75709   0.76595
 Alpha virt. eigenvalues --    0.79297   0.80193   0.81120   0.81765   0.82454
 Alpha virt. eigenvalues --    0.83557   0.84463   0.84788   0.85596   0.85969
 Alpha virt. eigenvalues --    0.86472   0.87123   0.88699   0.89912   0.90909
 Alpha virt. eigenvalues --    0.91941   0.92866   0.93859   0.94479   0.95797
 Alpha virt. eigenvalues --    0.96128   0.98252   0.98657   1.00177   1.02681
 Alpha virt. eigenvalues --    1.04071   1.05733   1.06478   1.08101   1.11017
 Alpha virt. eigenvalues --    1.13735   1.16224   1.18988   1.20041   1.25382
 Alpha virt. eigenvalues --    1.26219   1.27662   1.29346   1.32227   1.32982
 Alpha virt. eigenvalues --    1.35037   1.37573   1.38195   1.39146   1.41436
 Alpha virt. eigenvalues --    1.42662   1.44735   1.47694   1.50381   1.51918
 Alpha virt. eigenvalues --    1.53714   1.59034   1.61540   1.62780   1.64498
 Alpha virt. eigenvalues --    1.67386   1.70288   1.71948   1.72818   1.74273
 Alpha virt. eigenvalues --    1.76811   1.78130   1.78957   1.81319   1.83474
 Alpha virt. eigenvalues --    1.83686   1.85007   1.87216   1.87594   1.88563
 Alpha virt. eigenvalues --    1.89227   1.90345   1.90859   1.92704   1.94849
 Alpha virt. eigenvalues --    1.96031   1.96567   1.98253   1.99305   2.00868
 Alpha virt. eigenvalues --    2.01519   2.02615   2.03284   2.03395   2.03561
 Alpha virt. eigenvalues --    2.04122   2.04872   2.05185   2.05482   2.07712
 Alpha virt. eigenvalues --    2.08753   2.09305   2.10460   2.11597   2.12528
 Alpha virt. eigenvalues --    2.13022   2.14882   2.16006   2.19863   2.22745
 Alpha virt. eigenvalues --    2.23751   2.26096   2.27919   2.28725   2.29732
 Alpha virt. eigenvalues --    2.31589   2.32948   2.35288   2.36382   2.37516
 Alpha virt. eigenvalues --    2.39452   2.44401   2.45649   2.47320   2.50721
 Alpha virt. eigenvalues --    2.51020   2.53417   2.55327   2.56542   2.57414
 Alpha virt. eigenvalues --    2.59420   2.59946   2.61399   2.63772   2.65241
 Alpha virt. eigenvalues --    2.65522   2.66218   2.68467   2.68796   2.70617
 Alpha virt. eigenvalues --    2.71021   2.71260   2.73849   2.75164   2.79173
 Alpha virt. eigenvalues --    2.80353   2.81203   2.84126   2.85013   2.86143
 Alpha virt. eigenvalues --    2.87150   2.88220   2.89633   2.90343   2.91051
 Alpha virt. eigenvalues --    2.97640   2.99038   3.01203   3.05046   3.07959
 Alpha virt. eigenvalues --    3.12317   3.13485   3.15629   3.18022   3.18718
 Alpha virt. eigenvalues --    3.23557   3.26350   3.28302   3.34206   3.37764
 Alpha virt. eigenvalues --    3.39143   3.40456   3.42463   3.43533   3.43871
 Alpha virt. eigenvalues --    3.44391   3.44675   3.46402   3.48942   3.49914
 Alpha virt. eigenvalues --    3.56168   3.95762   4.01631   4.07203   4.10529
 Alpha virt. eigenvalues --    4.23305   4.29879   4.36866   4.40318   4.45777
 Alpha virt. eigenvalues --    4.50643   4.54066   4.63019   4.70329   4.78572
          Condensed to atoms (all electrons):
              1          2          3          4          5          6
     1  C    5.155929   0.345598  -0.079157  -0.120937   0.006655  -0.000144
     2  C    0.345598   4.382653   0.569590   0.263202  -0.026321  -0.002249
     3  O   -0.079157   0.569590   8.083446  -0.099782   0.000294   0.000471
     4  N   -0.120937   0.263202  -0.099782   7.082633   0.286972  -0.049868
     5  C    0.006655  -0.026321   0.000294   0.286972   5.011077   0.332366
     6  C   -0.000144  -0.002249   0.000471  -0.049868   0.332366   4.423214
     7  O   -0.000004  -0.000073   0.000001  -0.001272  -0.081445   0.538832
     8  N    0.000008   0.000964  -0.000212  -0.000023  -0.095801   0.295876
     9  C   -0.000088  -0.000147  -0.014660   0.000820   0.000269  -0.023487
    10  C    0.000000  -0.000029  -0.000003  -0.000111   0.005646  -0.031095
    11  H    0.368142  -0.023455   0.005102   0.004603  -0.000141   0.000005
    12  H    0.359939  -0.019855   0.001919   0.001644  -0.000160   0.000013
    13  H    0.365015  -0.021710   0.000853   0.001521  -0.000185  -0.000003
    14  H   -0.000124   0.005174   0.000767  -0.038272   0.369826  -0.039108
    15  H    0.000526  -0.006525   0.011653  -0.038703   0.352716  -0.029831
    16  H    0.000390  -0.000856   0.033494  -0.001940  -0.001235  -0.003473
    17  H    0.000000  -0.000015   0.000034   0.000021  -0.000053   0.001749
    18  H    0.000000   0.000033   0.000207  -0.000057  -0.000329  -0.001125
    19  H    0.000000  -0.000002   0.000000   0.000015  -0.000174   0.001119
    20  H    0.000000  -0.000001   0.000000  -0.000015   0.001023  -0.003979
    21  H    0.000000   0.000001   0.000000  -0.000002  -0.000140   0.001582
    22  C    0.001355  -0.027785   0.002301   0.250963  -0.038122  -0.000386
    23  H    0.006742  -0.009387   0.000108  -0.033848   0.003048  -0.000011
    24  H   -0.000306   0.003210  -0.000089  -0.031831  -0.006644  -0.001198
    25  C   -0.001991  -0.001058   0.000009  -0.050894   0.000773   0.002035
    26  H   -0.001522   0.002434  -0.000073   0.003388  -0.000204   0.000038
    27  H    0.000086  -0.000104   0.000001   0.001405  -0.000354   0.000021
    28  O   -0.000016   0.000031   0.000000   0.001987  -0.000023  -0.000015
    29  C    0.000002  -0.000003   0.000000  -0.000126   0.000001   0.000002
    30  H    0.000000   0.000000   0.000000   0.000001   0.000000   0.000000
    31  H    0.000000   0.000000   0.000000   0.000005  -0.000001   0.000002
    32  H   -0.000002   0.000000   0.000000   0.000014   0.000000   0.000000
              7          8          9         10         11         12
     1  C   -0.000004   0.000008  -0.000088   0.000000   0.368142   0.359939
     2  C   -0.000073   0.000964  -0.000147  -0.000029  -0.023455  -0.019855
     3  O    0.000001  -0.000212  -0.014660  -0.000003   0.005102   0.001919
     4  N   -0.001272  -0.000023   0.000820  -0.000111   0.004603   0.001644
     5  C   -0.081445  -0.095801   0.000269   0.005646  -0.000141  -0.000160
     6  C    0.538832   0.295876  -0.023487  -0.031095   0.000005   0.000013
     7  O    8.132750  -0.092297   0.002661  -0.012512   0.000000   0.000000
     8  N   -0.092297   6.984309   0.281016   0.289732   0.000000   0.000000
     9  C    0.002661   0.281016   4.874338  -0.048726   0.000001   0.000002
    10  C   -0.012512   0.289732  -0.048726   4.826639   0.000000   0.000000
    11  H    0.000000   0.000000   0.000001   0.000000   0.546136  -0.022757
    12  H    0.000000   0.000000   0.000002   0.000000  -0.022757   0.573254
    13  H    0.000000   0.000000   0.000001   0.000000  -0.021535  -0.028418
    14  H    0.000258   0.002805   0.000012  -0.000196   0.000002  -0.000009
    15  H    0.003535   0.002165   0.000220  -0.000223  -0.000024  -0.000006
    16  H    0.000009  -0.028106   0.368513   0.003576  -0.000004  -0.000011
    17  H   -0.000061  -0.038766   0.385789  -0.004644   0.000000   0.000000
    18  H   -0.000020  -0.046441   0.376098   0.000158   0.000000   0.000000
    19  H    0.000652  -0.042035  -0.003498   0.386291   0.000000   0.000000
    20  H    0.024113  -0.035647   0.004466   0.383429   0.000000   0.000000
    21  H    0.000764  -0.046353   0.000002   0.385911   0.000000   0.000000
    22  C    0.003972   0.000081  -0.000015   0.000001   0.000320  -0.000822
    23  H    0.000033   0.000003   0.000000   0.000000   0.000038  -0.002667
    24  H    0.000594  -0.000003  -0.000001   0.000000  -0.000010   0.000201
    25  C   -0.010141  -0.000082   0.000004   0.000001   0.000022   0.000169
    26  H    0.000347  -0.000003  -0.000001   0.000000  -0.000040   0.004366
    27  H    0.020336   0.000184  -0.000006   0.000001   0.000000  -0.000079
    28  O    0.000065   0.000000   0.000000   0.000000   0.000000  -0.000030
    29  C    0.000007   0.000000   0.000000   0.000000   0.000000  -0.000007
    30  H    0.000000   0.000000   0.000000   0.000000   0.000000   0.000000
    31  H   -0.000034   0.000000   0.000000   0.000000   0.000000   0.000000
    32  H    0.000001   0.000000   0.000000   0.000000   0.000000   0.000005
             13         14         15         16         17         18
     1  C    0.365015  -0.000124   0.000526   0.000390   0.000000   0.000000
     2  C   -0.021710   0.005174  -0.006525  -0.000856  -0.000015   0.000033
     3  O    0.000853   0.000767   0.011653   0.033494   0.000034   0.000207
     4  N    0.001521  -0.038272  -0.038703  -0.001940   0.000021  -0.000057
     5  C   -0.000185   0.369826   0.352716  -0.001235  -0.000053  -0.000329
     6  C   -0.000003  -0.039108  -0.029831  -0.003473   0.001749  -0.001125
     7  O    0.000000   0.000258   0.003535   0.000009  -0.000061  -0.000020
     8  N    0.000000   0.002805   0.002165  -0.028106  -0.038766  -0.046441
     9  C    0.000001   0.000012   0.000220   0.368513   0.385789   0.376098
    10  C    0.000000  -0.000196  -0.000223   0.003576  -0.004644   0.000158
    11  H   -0.021535   0.000002  -0.000024  -0.000004   0.000000   0.000000
    12  H   -0.028418  -0.000009  -0.000006  -0.000011   0.000000   0.000000
    13  H    0.567551   0.000007  -0.000021  -0.000006   0.000000   0.000000
    14  H    0.000007   0.591662  -0.022434   0.000100  -0.000017   0.000126
    15  H   -0.000021  -0.022434   0.592775  -0.001885   0.000166   0.000481
    16  H   -0.000006   0.000100  -0.001885   0.502227  -0.021252  -0.027581
    17  H    0.000000  -0.000017   0.000166  -0.021252   0.602373  -0.044258
    18  H    0.000000   0.000126   0.000481  -0.027581  -0.044258   0.629578
    19  H    0.000000  -0.000003   0.000001   0.000124   0.006637  -0.000984
    20  H    0.000000  -0.000025  -0.000057  -0.000193   0.000056  -0.000109
    21  H    0.000000   0.000022  -0.000018  -0.000036  -0.002596   0.004372
    22  C   -0.002843  -0.006521   0.003344  -0.000021   0.000000   0.000001
    23  H    0.002251   0.000540  -0.000107   0.000000   0.000000   0.000000
    24  H    0.000159   0.007419   0.000583  -0.000002   0.000000   0.000000
    25  C    0.000093  -0.001091  -0.000179   0.000002   0.000000   0.000000
    26  H    0.000107   0.000027   0.000014   0.000000   0.000000   0.000000
    27  H   -0.000007   0.000375   0.000011   0.000000   0.000000   0.000000
    28  O   -0.000013   0.000005   0.000001   0.000000   0.000000   0.000000
    29  C    0.000000   0.000000   0.000000   0.000000   0.000000   0.000000
    30  H    0.000000   0.000000   0.000000   0.000000   0.000000   0.000000
    31  H    0.000000   0.000000   0.000000   0.000000   0.000000   0.000000
    32  H    0.000000   0.000000   0.000000   0.000000   0.000000   0.000000
             19         20         21         22         23         24
     1  C    0.000000   0.000000   0.000000   0.001355   0.006742  -0.000306
     2  C   -0.000002  -0.000001   0.000001  -0.027785  -0.009387   0.003210
     3  O    0.000000   0.000000   0.000000   0.002301   0.000108  -0.000089
     4  N    0.000015  -0.000015  -0.000002   0.250963  -0.033848  -0.031831
     5  C   -0.000174   0.001023  -0.000140  -0.038122   0.003048  -0.006644
     6  C    0.001119  -0.003979   0.001582  -0.000386  -0.000011  -0.001198
     7  O    0.000652   0.024113   0.000764   0.003972   0.000033   0.000594
     8  N   -0.042035  -0.035647  -0.046353   0.000081   0.000003  -0.000003
     9  C   -0.003498   0.004466   0.000002  -0.000015   0.000000  -0.000001
    10  C    0.386291   0.383429   0.385911   0.000001   0.000000   0.000000
    11  H    0.000000   0.000000   0.000000   0.000320   0.000038  -0.000010
    12  H    0.000000   0.000000   0.000000  -0.000822  -0.002667   0.000201
    13  H    0.000000   0.000000   0.000000  -0.002843   0.002251   0.000159
    14  H   -0.000003  -0.000025   0.000022  -0.006521   0.000540   0.007419
    15  H    0.000001  -0.000057  -0.000018   0.003344  -0.000107   0.000583
    16  H    0.000124  -0.000193  -0.000036  -0.000021   0.000000  -0.000002
    17  H    0.006637   0.000056  -0.002596   0.000000   0.000000   0.000000
    18  H   -0.000984  -0.000109   0.004372   0.000001   0.000000   0.000000
    19  H    0.605545  -0.026135  -0.043507   0.000000   0.000000   0.000000
    20  H   -0.026135   0.518516  -0.023874  -0.000002   0.000000   0.000000
    21  H   -0.043507  -0.023874   0.611512   0.000000   0.000000   0.000000
    22  C    0.000000  -0.000002   0.000000   4.892439   0.375644   0.374068
    23  H    0.000000   0.000000   0.000000   0.375644   0.609605  -0.031212
    24  H    0.000000   0.000000   0.000000   0.374068  -0.031212   0.602211
    25  C    0.000000   0.000004   0.000000   0.360377  -0.048039  -0.043343
    26  H    0.000000  -0.000001   0.000000  -0.047594  -0.007218   0.006677
    27  H    0.000003  -0.000011   0.000000  -0.030228   0.006353  -0.008151
    28  O    0.000000   0.000000   0.000000  -0.040276   0.006701   0.005525
    29  C    0.000000   0.000000   0.000000   0.004522  -0.000122  -0.000082
    30  H    0.000000   0.000000   0.000000  -0.000280   0.000007   0.000009
    31  H    0.000000   0.000000   0.000000   0.000098   0.000072  -0.000072
    32  H    0.000000   0.000000   0.000000  -0.000010  -0.000068   0.000042
             25         26         27         28         29         30
     1  C   -0.001991  -0.001522   0.000086  -0.000016   0.000002   0.000000
     2  C   -0.001058   0.002434  -0.000104   0.000031  -0.000003   0.000000
     3  O    0.000009  -0.000073   0.000001   0.000000   0.000000   0.000000
     4  N   -0.050894   0.003388   0.001405   0.001987  -0.000126   0.000001
     5  C    0.000773  -0.000204  -0.000354  -0.000023   0.000001   0.000000
     6  C    0.002035   0.000038   0.000021  -0.000015   0.000002   0.000000
     7  O   -0.010141   0.000347   0.020336   0.000065   0.000007   0.000000
     8  N   -0.000082  -0.000003   0.000184   0.000000   0.000000   0.000000
     9  C    0.000004  -0.000001  -0.000006   0.000000   0.000000   0.000000
    10  C    0.000001   0.000000   0.000001   0.000000   0.000000   0.000000
    11  H    0.000022  -0.000040   0.000000   0.000000   0.000000   0.000000
    12  H    0.000169   0.004366  -0.000079  -0.000030  -0.000007   0.000000
    13  H    0.000093   0.000107  -0.000007  -0.000013   0.000000   0.000000
    14  H   -0.001091   0.000027   0.000375   0.000005   0.000000   0.000000
    15  H   -0.000179   0.000014   0.000011   0.000001   0.000000   0.000000
    16  H    0.000002   0.000000   0.000000   0.000000   0.000000   0.000000
    17  H    0.000000   0.000000   0.000000   0.000000   0.000000   0.000000
    18  H    0.000000   0.000000   0.000000   0.000000   0.000000   0.000000
    19  H    0.000000   0.000000   0.000003   0.000000   0.000000   0.000000
    20  H    0.000004  -0.000001  -0.000011   0.000000   0.000000   0.000000
    21  H    0.000000   0.000000   0.000000   0.000000   0.000000   0.000000
    22  C    0.360377  -0.047594  -0.030228  -0.040276   0.004522  -0.000280
    23  H   -0.048039  -0.007218   0.006353   0.006701  -0.000122   0.000007
    24  H   -0.043343   0.006677  -0.008151   0.005525  -0.000082   0.000009
    25  C    4.827617   0.355995   0.363731   0.217536  -0.035645   0.005430
    26  H    0.355995   0.698722  -0.052858  -0.039498  -0.005037  -0.000129
    27  H    0.363731  -0.052858   0.590148  -0.031841  -0.005915  -0.000038
    28  O    0.217536  -0.039498  -0.031841   8.220789   0.260364  -0.033392
    29  C   -0.035645  -0.005037  -0.005915   0.260364   4.704627   0.393191
    30  H    0.005430  -0.000129  -0.000038  -0.033392   0.393191   0.593952
    31  H   -0.006514  -0.002618   0.011900  -0.037980   0.372744  -0.034671
    32  H   -0.009778   0.012365  -0.002473  -0.037623   0.369460  -0.036149
             31         32
     1  C    0.000000  -0.000002
     2  C    0.000000   0.000000
     3  O    0.000000   0.000000
     4  N    0.000005   0.000014
     5  C   -0.000001   0.000000
     6  C    0.000002   0.000000
     7  O   -0.000034   0.000001
     8  N    0.000000   0.000000
     9  C    0.000000   0.000000
    10  C    0.000000   0.000000
    11  H    0.000000   0.000000
    12  H    0.000000   0.000005
    13  H    0.000000   0.000000
    14  H    0.000000   0.000000
    15  H    0.000000   0.000000
    16  H    0.000000   0.000000
    17  H    0.000000   0.000000
    18  H    0.000000   0.000000
    19  H    0.000000   0.000000
    20  H    0.000000   0.000000
    21  H    0.000000   0.000000
    22  C    0.000098  -0.000010
    23  H    0.000072  -0.000068
    24  H   -0.000072   0.000042
    25  C   -0.006514  -0.009778
    26  H   -0.002618   0.012365
    27  H    0.011900  -0.002473
    28  O   -0.037980  -0.037623
    29  C    0.372744   0.369460
    30  H   -0.034671  -0.036149
    31  H    0.650097  -0.052380
    32  H   -0.052380   0.668151
 Mulliken atomic charges:
              1
     1  C   -0.406097
     2  C    0.566686
     3  O   -0.516278
     4  N   -0.431513
     5  C   -0.119331
     6  C    0.588647
     7  O   -0.531072
     8  N   -0.431372
     9  C   -0.203583
    10  C   -0.183844
    11  H    0.143595
    12  H    0.133312
    13  H    0.137183
    14  H    0.128674
    15  H    0.131821
    16  H    0.178167
    17  H    0.114835
    18  H    0.109849
    19  H    0.115951
    20  H    0.158441
    21  H    0.112361
    22  C   -0.074583
    23  H    0.121536
    24  H    0.122243
    25  C    0.074958
    26  H    0.072315
    27  H    0.137512
    28  O   -0.492299
    29  C   -0.057981
    30  H    0.112071
    31  H    0.099350
    32  H    0.088445
 Sum of Mulliken atomic charges =   0.00000
 Mulliken charges with hydrogens summed into heavy atoms:
              1
     1  C    0.007993
     2  C    0.566686
     3  O   -0.516278
     4  N   -0.431513
     5  C    0.141164
     6  C    0.588647
     7  O   -0.531072
     8  N   -0.431372
     9  C    0.199268
    10  C    0.202909
    22  C    0.169196
    25  C    0.284786
    28  O   -0.492299
    29  C    0.241885
 Sum of Mulliken charges with hydrogens summed into heavy atoms =   0.00000
 Electronic spatial extent (au):  <R**2>=           3635.6395
 Charge=              0.0000 electrons
 Dipole moment (field-independent basis, Debye):
    X=             -0.3356    Y=              0.0180    Z=             -0.2584  Tot=              0.4239
 Quadrupole moment (field-independent basis, Debye-Ang):
   XX=            -76.1799   YY=            -90.0810   ZZ=            -81.8097
   XY=              5.1376   XZ=             -2.9099   YZ=              3.7015
 Traceless Quadrupole moment (field-independent basis, Debye-Ang):
   XX=              6.5103   YY=             -7.3908   ZZ=              0.8805
   XY=              5.1376   XZ=             -2.9099   YZ=              3.7015
 Octapole moment (field-independent basis, Debye-Ang**2):
  XXX=            -29.1928  YYY=             -6.7165  ZZZ=              3.5430  XYY=             25.3245
  XXY=            -26.1606  XXZ=            -14.9848  XZZ=             -0.5042  YZZ=             -0.0436
  YYZ=             -4.5835  XYZ=             -1.7409
 Hexadecapole moment (field-independent basis, Debye-Ang**3):
 XXXX=          -2786.2674 YYYY=          -1443.1196 ZZZZ=           -316.8926 XXXY=            -49.5802
 XXXZ=            -24.6819 YYYX=             36.0588 YYYZ=              9.2542 ZZZX=              6.5680
 ZZZY=             -7.0662 XXYY=           -678.1690 XXZZ=           -535.5483 YYZZ=           -289.7195
 XXYZ=             28.1072 YYXZ=             -3.6631 ZZXY=              0.4151
 N-N= 9.741704509355D+02 E-N=-3.554361932380D+03  KE= 6.826114055259D+02
 Calling FoFJK, ICntrl=      2127 FMM=F ISym2X=0 I1Cent= 0 IOpClX= 0 NMat=1 NMatS=1 NMatT=0.
 ***** Axes restored to original set *****
 -------------------------------------------------------------------
 Center     Atomic                   Forces (Hartrees/Bohr)
 Number     Number              X              Y              Z
 -------------------------------------------------------------------
      1        6          -0.000002350    0.000011078    0.000012294
      2        6          -0.000029945   -0.000163211   -0.000229541
      3        8          -0.000002945   -0.000001288   -0.000001076
      4        7          -0.000024603    0.000295107    0.000268365
      5        6           0.000215506   -0.000281253    0.000079189
      6        6          -0.000139712    0.000148001   -0.000103365
      7        8          -0.000003217   -0.000006606   -0.000006505
      8        7           0.000011492    0.000017824   -0.000024954
      9        6          -0.000013137   -0.000003072    0.000008422
     10        6          -0.000006669   -0.000002732    0.000008398
     11        1           0.000001067   -0.000002303    0.000002283
     12        1          -0.000000457   -0.000004215   -0.000002759
     13        1           0.000004371   -0.000005450   -0.000000025
     14        1          -0.000002990    0.000007754    0.000004088
     15        1          -0.000003246   -0.000006192    0.000003336
     16        1           0.000003083   -0.000000613    0.000002151
     17        1          -0.000000040   -0.000001848    0.000005321
     18        1          -0.000001869    0.000002916    0.000004858
     19        1           0.000000090    0.000001077    0.000002176
     20        1           0.000000231    0.000000895   -0.000005289
     21        1          -0.000002409    0.000003734    0.000001708
     22        6           0.000006283    0.000003052    0.000001142
     23        1           0.000000008   -0.000001805    0.000002505
     24        1           0.000000892   -0.000005465   -0.000006809
     25        6          -0.000002890   -0.000001159   -0.000012544
     26        1          -0.000000399   -0.000006245    0.000005154
     27        1          -0.000000030    0.000004277   -0.000001589
     28        8           0.000000457   -0.000001420    0.000001571
     29        6          -0.000000510   -0.000005005   -0.000010006
     30        1          -0.000004935    0.000000810   -0.000005914
     31        1           0.000000725    0.000004156   -0.000004243
     32        1          -0.000001852   -0.000000799    0.000001660
 -------------------------------------------------------------------
 Cartesian Forces:  Max     0.000295107 RMS     0.000066669

 GradGradGradGradGradGradGradGradGradGradGradGradGradGradGradGradGradGrad
 Berny optimization.
 Internal  Forces:  Max     0.000244607 RMS     0.000033488
 Search for a local minimum.
 Step number   1 out of a maximum of  155 on scan point     1 out of    37
 All quantities printed in internal units (Hartrees-Bohrs-Radians)
 Mixed Optimization -- En-DIIS/RFO-DIIS
 Second derivative matrix not updated -- first step.
 ITU=  0
     Eigenvalues ---    0.00353   0.00486   0.00723   0.00832   0.00883
     Eigenvalues ---    0.00917   0.01055   0.01111   0.01243   0.01465
     Eigenvalues ---    0.01529   0.02020   0.02151   0.02741   0.03969
     Eigenvalues ---    0.05450   0.05483   0.05925   0.06400   0.06925
     Eigenvalues ---    0.07153   0.07470   0.07499   0.07622   0.07681
     Eigenvalues ---    0.09697   0.09974   0.10037   0.10506   0.10922
     Eigenvalues ---    0.11034   0.13060   0.13509   0.16000   0.16000
     Eigenvalues ---    0.16000   0.16000   0.16000   0.16000   0.16000
     Eigenvalues ---    0.16000   0.16000   0.16000   0.16000   0.16000
     Eigenvalues ---    0.21937   0.21990   0.22065   0.24900   0.24948
     Eigenvalues ---    0.24982   0.24995   0.24997   0.24998   0.25000
     Eigenvalues ---    0.25000   0.25000   0.28413   0.29314   0.30252
     Eigenvalues ---    0.33221   0.33493   0.33621   0.33841   0.34039
     Eigenvalues ---    0.34047   0.34058   0.34192   0.34276   0.34391
     Eigenvalues ---    0.34394   0.34457   0.34495   0.34531   0.34889
     Eigenvalues ---    0.34897   0.35031   0.35084   0.36252   0.36344
     Eigenvalues ---    0.36826   0.37141   0.42897   0.43645   0.49986
     Eigenvalues ---    0.51896   0.89737   0.905901000.000001000.00000
     Eigenvalues --- 1000.000001000.000001000.000001000.000001000.00000
     Eigenvalues --- 1000.000001000.000001000.000001000.000001000.00000
     Eigenvalues --- 1000.000001000.000001000.000001000.000001000.00000
     Eigenvalues --- 1000.000001000.000001000.000001000.000001000.00000
     Eigenvalues --- 1000.000001000.000001000.000001000.000001000.00000
     Eigenvalues --- 1000.000001000.000001000.000001000.000001000.00000
     Eigenvalues --- 1000.000001000.000001000.000001000.000001000.00000
     Eigenvalues --- 1000.000001000.000001000.000001000.000001000.00000
     Eigenvalues --- 1000.000001000.000001000.000001000.000001000.00000
     Eigenvalues --- 1000.000001000.000001000.000001000.000001000.00000
     Eigenvalues --- 1000.000001000.000001000.000001000.000001000.00000
 RFO step:  Lambda=-3.10824966D-08 EMin= 3.53411554D-03
 Linear search not attempted -- first point.
 Iteration  1 RMS(Cart)=  0.00023901 RMS(Int)=  0.00000002
 Iteration  2 RMS(Cart)=  0.00000004 RMS(Int)=  0.00000000
 Iteration  1 RMS(Cart)=  0.00000000 RMS(Int)=  0.00000000
 Variable       Old X    -DE/DX   Delta X   Delta X   Delta X     New X
                                 (Linear)    (Quad)   (Total)
    R1        2.87463   0.00000   0.00000  -0.00001  -0.00001   2.87462
    R2        2.05856   0.00000   0.00000  -0.00001  -0.00001   2.05855
    R3        2.06566   0.00000   0.00000   0.00001   0.00001   2.06567
    R4        2.07007   0.00000   0.00000   0.00000   0.00000   2.07007
    R5        2.32662   0.00000   0.00000   0.00000   0.00000   2.32663
    R6        2.59880  -0.00001   0.00000  -0.00001  -0.00001   2.59878
    R7        2.76990   0.00000   0.00000  -0.00001  -0.00001   2.76989
    R8        2.76846   0.00000   0.00000   0.00000   0.00000   2.76846
    R9        2.91244  -0.00001   0.00000  -0.00002  -0.00002   2.91242
   R10        2.06675   0.00000   0.00000   0.00000   0.00000   2.06674
   R11        2.05539   0.00000   0.00000   0.00000   0.00000   2.05539
   R12        2.33054   0.00000   0.00000   0.00000   0.00000   2.33055
   R13        2.57999   0.00001   0.00000   0.00002   0.00002   2.58001
   R14        2.76109   0.00000   0.00000   0.00000   0.00000   2.76109
   R15        2.75634   0.00000   0.00000   0.00001   0.00001   2.75634
   R16        2.05843   0.00000   0.00000   0.00000   0.00000   2.05843
   R17        2.06867   0.00000   0.00000  -0.00001  -0.00001   2.06866
   R18        2.07599   0.00000   0.00000   0.00001   0.00001   2.07600
   R19        2.07265   0.00000   0.00000   0.00000   0.00000   2.07264
   R20        2.05625   0.00000   0.00000   0.00000   0.00000   2.05625
   R21        2.07233   0.00000   0.00000   0.00000   0.00000   2.07233
   R22        2.06444   0.00000   0.00000   0.00000   0.00000   2.06444
   R23        2.06670   0.00000   0.00000  -0.00001  -0.00001   2.06669
   R24        2.89352   0.00000   0.00000   0.00000   0.00000   2.89352
   R25        2.08665  -0.00001   0.00000  -0.00003  -0.00003   2.08663
   R26        2.07251   0.00000   0.00000  -0.00001  -0.00001   2.07249
   R27        2.67797   0.00000   0.00000   0.00000   0.00000   2.67797
   R28        2.66882   0.00000   0.00000   0.00000   0.00000   2.66881
   R29        2.06502   0.00000   0.00000  -0.00001  -0.00001   2.06501
   R30        2.07974  -0.00001   0.00000  -0.00001  -0.00001   2.07972
   R31        2.08194  -0.00001   0.00000  -0.00002  -0.00002   2.08193
    A1        1.87143   0.00000   0.00000   0.00001   0.00001   1.87144
    A2        1.96864  -0.00001   0.00000  -0.00005  -0.00005   1.96859
    A3        1.93630   0.00000   0.00000   0.00003   0.00003   1.93632
    A4        1.91038   0.00000   0.00000  -0.00001  -0.00001   1.91037
    A5        1.89655   0.00000   0.00000   0.00004   0.00004   1.89659
    A6        1.87957   0.00000   0.00000  -0.00001  -0.00001   1.87956
    A7        2.09997   0.00001   0.00000   0.00003   0.00003   2.10000
    A8        2.05882  -0.00001   0.00000  -0.00005  -0.00005   2.05877
    A9        2.12417   0.00001   0.00000   0.00002   0.00002   2.12419
   A10        2.04759   0.00001   0.00000   0.00006   0.00006   2.04765
   A11        2.15330   0.00001   0.00000  -0.00001  -0.00001   2.15329
   A12        2.07959  -0.00001   0.00000  -0.00005  -0.00005   2.07954
   A13        1.98556  -0.00001   0.00000  -0.00004  -0.00004   1.98552
   A14        1.88301   0.00001   0.00000   0.00004   0.00004   1.88305
   A15        1.88279   0.00000   0.00000   0.00003   0.00003   1.88283
   A16        1.82773   0.00012   0.00000   0.00009   0.00009   1.82782
   A17        1.98276  -0.00011   0.00000  -0.00006  -0.00006   1.98270
   A18        1.89761  -0.00001   0.00000  -0.00005  -0.00005   1.89756
   A19        2.06672   0.00001   0.00000   0.00005   0.00005   2.06677
   A20        2.08042   0.00000   0.00000  -0.00001  -0.00001   2.08041
   A21        2.13533  -0.00001   0.00000  -0.00003  -0.00003   2.13531
   A22        2.19722   0.00001   0.00000   0.00004   0.00004   2.19726
   A23        2.06690   0.00000   0.00000  -0.00001  -0.00001   2.06690
   A24        2.01897  -0.00001   0.00000  -0.00004  -0.00004   2.01893
   A25        1.93950   0.00000   0.00000  -0.00003  -0.00003   1.93947
   A26        1.89082   0.00000   0.00000  -0.00003  -0.00003   1.89079
   A27        1.94758   0.00001   0.00000   0.00003   0.00003   1.94761
   A28        1.87482   0.00000   0.00000   0.00002   0.00002   1.87484
   A29        1.92820   0.00000   0.00000   0.00001   0.00001   1.92821
   A30        1.88004   0.00000   0.00000   0.00000   0.00000   1.88004
   A31        1.92896   0.00000   0.00000  -0.00001  -0.00001   1.92895
   A32        1.89739   0.00000   0.00000   0.00002   0.00002   1.89741
   A33        1.92151   0.00000   0.00000  -0.00001  -0.00001   1.92150
   A34        1.90953   0.00000   0.00000  -0.00003  -0.00003   1.90949
   A35        1.88994   0.00000   0.00000   0.00000   0.00000   1.88994
   A36        1.91654   0.00000   0.00000   0.00003   0.00003   1.91657
   A37        1.91661   0.00000   0.00000   0.00004   0.00004   1.91664
   A38        1.88958   0.00000   0.00000  -0.00002  -0.00002   1.88956
   A39        1.99905   0.00000   0.00000  -0.00002  -0.00002   1.99904
   A40        1.86301   0.00000   0.00000   0.00001   0.00001   1.86302
   A41        1.89309   0.00000   0.00000   0.00005   0.00005   1.89314
   A42        1.89773   0.00000   0.00000  -0.00006  -0.00006   1.89767
   A43        1.92294   0.00000   0.00000   0.00004   0.00004   1.92297
   A44        1.91890   0.00000   0.00000  -0.00003  -0.00003   1.91887
   A45        1.85464   0.00000   0.00000  -0.00001  -0.00001   1.85463
   A46        1.88121   0.00000   0.00000  -0.00001  -0.00001   1.88120
   A47        1.93376   0.00000   0.00000   0.00001   0.00001   1.93378
   A48        1.95283   0.00000   0.00000   0.00000   0.00000   1.95283
   A49        1.96865  -0.00001   0.00000  -0.00002  -0.00002   1.96863
   A50        1.87274   0.00000   0.00000  -0.00001  -0.00001   1.87273
   A51        1.95117   0.00000   0.00000  -0.00001  -0.00001   1.95117
   A52        1.95158   0.00000   0.00000   0.00000   0.00000   1.95158
   A53        1.90186   0.00000   0.00000   0.00001   0.00001   1.90187
   A54        1.89788   0.00000   0.00000   0.00000   0.00000   1.89788
   A55        1.88755   0.00000   0.00000   0.00001   0.00001   1.88756
    D1       -0.14785   0.00000   0.00000   0.00034   0.00034  -0.14751
    D2        3.01600   0.00000   0.00000   0.00035   0.00035   3.01635
    D3       -2.25217   0.00000   0.00000   0.00038   0.00038  -2.25179
    D4        0.91168   0.00000   0.00000   0.00039   0.00039   0.91206
    D5        1.92063   0.00000   0.00000   0.00041   0.00041   1.92105
    D6       -1.19871   0.00000   0.00000   0.00042   0.00042  -1.19828
    D7        3.06102   0.00004   0.00000  -0.00005  -0.00005   3.06097
    D8       -0.00064  -0.00004   0.00000  -0.00011  -0.00011  -0.00075
    D9       -0.05799   0.00004   0.00000  -0.00004  -0.00004  -0.05803
   D10       -3.11965  -0.00004   0.00000  -0.00010  -0.00010  -3.11976
   D11        1.72211  -0.00024   0.00000   0.00000   0.00000   1.72211
   D12       -2.54148  -0.00009   0.00000   0.00011   0.00011  -2.54137
   D13       -0.49432  -0.00010   0.00000   0.00009   0.00009  -0.49423
   D14       -1.49590  -0.00017   0.00000   0.00006   0.00006  -1.49584
   D15        0.52369  -0.00002   0.00000   0.00017   0.00017   0.52386
   D16        2.57085  -0.00002   0.00000   0.00014   0.00014   2.57099
   D17        0.53287   0.00004   0.00000   0.00014   0.00014   0.53301
   D18        2.56077   0.00004   0.00000   0.00017   0.00017   2.56094
   D19       -1.60193   0.00004   0.00000   0.00007   0.00007  -1.60186
   D20       -2.52740  -0.00004   0.00000   0.00008   0.00008  -2.52732
   D21       -0.49950  -0.00004   0.00000   0.00010   0.00010  -0.49940
   D22        1.62098  -0.00004   0.00000   0.00000   0.00000   1.62098
   D23        1.20700   0.00006   0.00000  -0.00018  -0.00018   1.20682
   D24       -1.97417   0.00006   0.00000   0.00000   0.00000  -1.97417
   D25       -0.84483  -0.00003   0.00000  -0.00026  -0.00026  -0.84509
   D26        2.25718  -0.00003   0.00000  -0.00008  -0.00008   2.25710
   D27       -2.91291  -0.00003   0.00000  -0.00022  -0.00022  -2.91313
   D28        0.18910  -0.00003   0.00000  -0.00004  -0.00004   0.18906
   D29        0.09673   0.00000   0.00000  -0.00040  -0.00040   0.09633
   D30       -3.02928   0.00000   0.00000   0.00006   0.00006  -3.02921
   D31       -3.08607   0.00000   0.00000  -0.00021  -0.00021  -3.08628
   D32        0.07111   0.00000   0.00000   0.00025   0.00025   0.07137
   D33        0.45823   0.00000   0.00000   0.00038   0.00038   0.45861
   D34        2.51396   0.00000   0.00000   0.00037   0.00037   2.51432
   D35       -1.70240   0.00000   0.00000   0.00037   0.00037  -1.70204
   D36       -2.69857   0.00000   0.00000  -0.00007  -0.00007  -2.69864
   D37       -0.64285   0.00000   0.00000  -0.00008  -0.00008  -0.64293
   D38        1.42398   0.00000   0.00000  -0.00009  -0.00009   1.42389
   D39       -2.03932   0.00000   0.00000  -0.00024  -0.00024  -2.03956
   D40        0.05669   0.00000   0.00000  -0.00028  -0.00028   0.05641
   D41        2.15677   0.00000   0.00000  -0.00023  -0.00023   2.15654
   D42        1.11628   0.00000   0.00000   0.00017   0.00017   1.11645
   D43       -3.07090   0.00000   0.00000   0.00014   0.00014  -3.07076
   D44       -0.97081   0.00000   0.00000   0.00018   0.00018  -0.97063
   D45        0.92859   0.00000   0.00000   0.00008   0.00008   0.92867
   D46       -1.14232   0.00000   0.00000   0.00009   0.00009  -1.14224
   D47        3.02440   0.00000   0.00000   0.00011   0.00011   3.02451
   D48       -1.21893   0.00000   0.00000   0.00001   0.00001  -1.21892
   D49        2.99334   0.00000   0.00000   0.00002   0.00002   2.99336
   D50        0.87688   0.00000   0.00000   0.00003   0.00003   0.87691
   D51        3.04460   0.00000   0.00000   0.00000   0.00000   3.04460
   D52        0.97369   0.00000   0.00000   0.00001   0.00001   0.97370
   D53       -1.14277   0.00000   0.00000   0.00003   0.00003  -1.14274
   D54        3.04541   0.00000   0.00000   0.00001   0.00001   3.04542
   D55       -1.14900   0.00000   0.00000   0.00005   0.00005  -1.14895
   D56        0.95085   0.00000   0.00000   0.00005   0.00005   0.95090
   D57       -3.12906   0.00000   0.00000  -0.00004  -0.00004  -3.12910
   D58       -1.04480   0.00000   0.00000  -0.00004  -0.00004  -1.04484
   D59        1.07450   0.00000   0.00000  -0.00004  -0.00004   1.07446
         Item               Value     Threshold  Converged?
 Maximum Force            0.000014     0.000450     YES
 RMS     Force            0.000004     0.000300     YES
 Maximum Displacement     0.000759     0.001800     YES
 RMS     Displacement     0.000239     0.001200     YES
 Predicted change in Energy=-1.554097D-08
 Optimization completed.
    -- Stationary point found.
                           ----------------------------
                           !   Optimized Parameters   !
                           ! (Angstroms and Degrees)  !
 --------------------------                            --------------------------
 ! Name  Definition              Value          Derivative Info.                !
 --------------------------------------------------------------------------------
 ! R1    R(1,2)                  1.5212         -DE/DX =    0.0                 !
 ! R2    R(1,11)                 1.0893         -DE/DX =    0.0                 !
 ! R3    R(1,12)                 1.0931         -DE/DX =    0.0                 !
 ! R4    R(1,13)                 1.0954         -DE/DX =    0.0                 !
 ! R5    R(2,3)                  1.2312         -DE/DX =    0.0                 !
 ! R6    R(2,4)                  1.3752         -DE/DX =    0.0                 !
 ! R7    R(4,5)                  1.4658         -DE/DX =    0.0                 !
 ! R8    R(4,22)                 1.465          -DE/DX =    0.0                 !
 ! R9    R(5,6)                  1.5412         -DE/DX =    0.0                 !
 ! R10   R(5,14)                 1.0937         -DE/DX =    0.0                 !
 ! R11   R(5,15)                 1.0877         -DE/DX =    0.0                 !
 ! R12   R(6,7)                  1.2333         -DE/DX =    0.0                 !
 ! R13   R(6,8)                  1.3653         -DE/DX =    0.0                 !
 ! R14   R(8,9)                  1.4611         -DE/DX =    0.0                 !
 ! R15   R(8,10)                 1.4586         -DE/DX =    0.0                 !
 ! R16   R(9,16)                 1.0893         -DE/DX =    0.0                 !
 ! R17   R(9,17)                 1.0947         -DE/DX =    0.0                 !
 ! R18   R(9,18)                 1.0986         -DE/DX =    0.0                 !
 ! R19   R(10,19)                1.0968         -DE/DX =    0.0                 !
 ! R20   R(10,20)                1.0881         -DE/DX =    0.0                 !
 ! R21   R(10,21)                1.0966         -DE/DX =    0.0                 !
 ! R22   R(22,23)                1.0925         -DE/DX =    0.0                 !
 ! R23   R(22,24)                1.0936         -DE/DX =    0.0                 !
 ! R24   R(22,25)                1.5312         -DE/DX =    0.0                 !
 ! R25   R(25,26)                1.1042         -DE/DX =    0.0                 !
 ! R26   R(25,27)                1.0967         -DE/DX =    0.0                 !
 ! R27   R(25,28)                1.4171         -DE/DX =    0.0                 !
 ! R28   R(28,29)                1.4123         -DE/DX =    0.0                 !
 ! R29   R(29,30)                1.0928         -DE/DX =    0.0                 !
 ! R30   R(29,31)                1.1005         -DE/DX =    0.0                 !
 ! R31   R(29,32)                1.1017         -DE/DX =    0.0                 !
 ! A1    A(2,1,11)             107.2251         -DE/DX =    0.0                 !
 ! A2    A(2,1,12)             112.7948         -DE/DX =    0.0                 !
 ! A3    A(2,1,13)             110.9416         -DE/DX =    0.0                 !
 ! A4    A(11,1,12)            109.4565         -DE/DX =    0.0                 !
 ! A5    A(11,1,13)            108.6642         -DE/DX =    0.0                 !
 ! A6    A(12,1,13)            107.6916         -DE/DX =    0.0                 !
 ! A7    A(1,2,3)              120.3197         -DE/DX =    0.0                 !
 ! A8    A(1,2,4)              117.9618         -DE/DX =    0.0                 !
 ! A9    A(3,2,4)              121.7058         -DE/DX =    0.0                 !
 ! A10   A(2,4,5)              117.3181         -DE/DX =    0.0                 !
 ! A11   A(2,4,22)             123.3748         -DE/DX =    0.0                 !
 ! A12   A(5,4,22)             119.1515         -DE/DX =    0.0                 !
 ! A13   A(4,5,6)              113.7641         -DE/DX =    0.0                 !
 ! A14   A(4,5,14)             107.8883         -DE/DX =    0.0                 !
 ! A15   A(4,5,15)             107.8762         -DE/DX =    0.0                 !
 ! A16   A(6,5,14)             104.7212         -DE/DX =    0.0001              !
[...]
   D17        0.40498  -0.00105   0.00233   0.01047   0.01280   0.41778
   D18        2.43607  -0.00106   0.00230   0.01042   0.01272   2.44879
   D19       -1.72685  -0.00101   0.00233   0.01033   0.01266  -1.71419
   D20       -2.79715   0.00113   0.00354   0.00660   0.01014  -2.78701
   D21       -0.76606   0.00112   0.00351   0.00655   0.01006  -0.75600
   D22        1.35420   0.00117   0.00355   0.00645   0.01000   1.36421
   D23        2.31503  -0.00282   0.00323   0.00084   0.00407   2.31909
   D24       -0.75244  -0.00371   0.00000   0.00000   0.00000  -0.75244
   D25        0.19020   0.00086   0.00404  -0.00140   0.00264   0.19284
   D26       -2.87727  -0.00003   0.00081  -0.00225  -0.00143  -2.87870
   D27       -1.81110   0.00098   0.00441  -0.00146   0.00295  -1.80815
   D28        1.40462   0.00009   0.00118  -0.00230  -0.00112   1.40350
   D29       -0.48601   0.00053   0.00767   0.01041   0.01808  -0.46793
   D30        3.02248   0.00051   0.00229   0.00156   0.00385   3.02633
   D31        2.73356  -0.00042   0.00433   0.00948   0.01381   2.74737
   D32       -0.04113  -0.00043  -0.00105   0.00063  -0.00042  -0.04155
   D33        0.08027   0.00003  -0.01178  -0.01509  -0.02687   0.05340
   D34        2.20904  -0.00002  -0.01141  -0.01504  -0.02645   2.18259
   D35       -2.00427  -0.00002  -0.01132  -0.01501  -0.02633  -2.03061
   D36        2.86205   0.00003  -0.00653  -0.00636  -0.01289   2.84917
   D37       -1.29236  -0.00002  -0.00616  -0.00631  -0.01247  -1.30483
   D38        0.77751  -0.00002  -0.00607  -0.00628  -0.01235   0.76516
   D39       -2.61755   0.00004   0.00608   0.00694   0.01302  -2.60452
   D40       -0.51284  -0.00002   0.00607   0.00639   0.01245  -0.50039
   D41        1.57803   0.00001   0.00610   0.00679   0.01289   1.59092
   D42        0.84885   0.00002   0.00137  -0.00118   0.00019   0.84904
   D43        2.95355  -0.00004   0.00135  -0.00173  -0.00038   2.95318
   D44       -1.23876  -0.00001   0.00139  -0.00133   0.00006  -1.23870
   D45        0.95037  -0.00002   0.00078  -0.00301  -0.00223   0.94814
   D46       -1.12117  -0.00003   0.00107  -0.00277  -0.00170  -1.12287
   D47        3.05584  -0.00002   0.00061  -0.00247  -0.00186   3.05398
   D48       -1.19730  -0.00001   0.00093  -0.00325  -0.00232  -1.19962
   D49        3.01435  -0.00001   0.00122  -0.00301  -0.00179   3.01255
   D50        0.90817   0.00000   0.00076  -0.00271  -0.00195   0.90622
   D51        3.06797   0.00001   0.00089  -0.00336  -0.00247   3.06550
   D52        0.99643   0.00000   0.00118  -0.00312  -0.00195   0.99449
   D53       -1.10975   0.00001   0.00072  -0.00282  -0.00210  -1.11185
   D54        3.07780  -0.00001   0.00000  -0.00126  -0.00126   3.07653
   D55       -1.11123   0.00001  -0.00020  -0.00052  -0.00072  -1.11195
   D56        0.97347  -0.00002  -0.00031  -0.00101  -0.00132   0.97215
   D57       -3.13571  -0.00001  -0.00006  -0.00015  -0.00021  -3.13593
   D58       -1.05349  -0.00002  -0.00005  -0.00027  -0.00032  -1.05380
   D59        1.06690   0.00000  -0.00010  -0.00008  -0.00018   1.06672
         Item               Value     Threshold  Converged?
 Maximum Force            0.000290     0.000450     YES
 RMS     Force            0.000057     0.000300     YES
 Maximum Displacement     0.072633     0.001800     NO 
 RMS     Displacement     0.015274     0.001200     NO 
 Predicted change in Energy=-3.982163D-06
 GradGradGradGradGradGradGradGradGradGradGradGradGradGradGradGradGradGrad

                          Input orientation:                          
 ---------------------------------------------------------------------
 Center     Atomic      Atomic             Coordinates (Angstroms)
 Number     Number       Type             X           Y           Z
 ---------------------------------------------------------------------
      1          6           0        0.818104    3.020263   -0.580155
      2          6           0       -0.212329    2.289816    0.268940
      3          8           0       -1.349278    2.744411    0.391787
      4          7           0        0.181146    1.143517    0.920724
      5          6           0       -0.782205    0.368741    1.703562
      6          6           0       -1.459038   -0.894260    1.106442
      7          8           0       -1.471129   -1.889781    1.829938
      8          7           0       -1.942490   -0.941759   -0.175546
      9          6           0       -2.410837    0.195576   -0.957401
     10          6           0       -2.418088   -2.238124   -0.649780
     11          1           0        0.296258    3.830756   -1.087549
     12          1           0        1.288521    2.370202   -1.323405
     13          1           0        1.612483    3.450045    0.039120
     14          1           0       -0.285847   -0.012770    2.596950
     15          1           0       -1.564875    1.066460    2.018844
     16          1           0       -2.285929    1.131887   -0.419244
     17          1           0       -1.879628    0.257929   -1.915974
     18          1           0       -3.479348    0.070469   -1.175644
     19          1           0       -2.252982   -2.302124   -1.730000
     20          1           0       -1.877282   -3.032633   -0.138874
     21          1           0       -3.490695   -2.370098   -0.453647
     22          6           0        1.530220    0.585061    0.816890
     23          1           0        2.238168    1.367696    0.544146
     24          1           0        1.830737    0.218872    1.804310
     25          6           0        1.662361   -0.558655   -0.193541
     26          1           0        1.291193   -0.237506   -1.182136
     27          1           0        1.060366   -1.425521    0.118457
     28          8           0        3.034664   -0.891128   -0.247661
     29          6           0        3.302489   -1.997887   -1.085254
     30          1           0        4.379882   -2.174580   -1.053199
     31          1           0        2.781497   -2.904469   -0.741677
     32          1           0        3.004787   -1.802542   -2.127361
 ---------------------------------------------------------------------
                    Distance matrix (angstroms):
                    1          2          3          4          5
     1  C    0.000000
     2  C    1.521942   0.000000
     3  O    2.391299   1.230609   0.000000
     4  N    2.486067   1.376098   2.277022   0.000000
     5  C    3.847977   2.464433   2.772388   1.463270   0.000000
     6  C    4.832543   3.520516   3.709812   2.622448   1.552362
     7  O    5.929391   4.635766   4.853747   3.571776   2.364638
     8  N    4.845844   3.692438   3.776455   3.171753   2.568019
     9  C    4.306650   3.274628   3.073072   3.338311   3.124604
    10  C    6.174822   5.119733   5.201238   4.545108   3.874285
    11  H    1.089345   2.114999   2.465029   3.356734   4.575908
    12  H    1.093750   2.189652   3.168579   2.786961   4.178072
    13  H    1.095104   2.174601   3.065016   2.854124   4.242562
    14  H    4.529017   3.275201   3.687232   2.089214   1.090901
    15  H    4.031220   2.527478   2.347193   2.064072   1.094891
    16  H    3.636878   2.472694   2.033548   2.807510   2.711068
    17  H    4.085665   3.417937   3.433601   3.616339   3.783868
    18  H    5.246331   4.205441   3.760851   4.352632   3.956435
    19  H    6.251521   5.407951   5.548528   4.982345   4.591955
    20  H    6.640586   5.591676   5.825343   4.774946   4.020337
    21  H    6.902011   5.743223   5.608799   5.264675   4.414829
    22  C    2.896386   2.498583   3.624226   1.463781   2.486019
    23  H    2.451859   2.632675   3.845559   2.103189   3.385972
    24  H    3.815611   3.289421   4.299542   2.087305   2.619175
    25  C    3.697417   3.441241   4.508084   2.516541   3.230320
    26  H    3.346528   3.279262   4.282656   2.749809   3.604687
    27  H    4.506855   3.930156   4.823839   2.831363   3.021093
    28  O    4.508067   4.574740   5.731054   3.694248   4.468001
    29  C    5.622199   5.707205   6.805143   4.861600   5.482987
    30  H    6.316361   6.539670   7.688155   5.703992   6.380859
    31  H    6.243672   6.079880   7.089279   5.090343   5.421538
    32  H    5.516781   5.730575   6.780764   5.093431   5.807904
                    6          7          8          9         10
     6  C    0.000000
     7  O    1.230714   0.000000
     8  N    1.370940   2.267796   0.000000
     9  C    2.520537   3.605693   1.457455   0.000000
    10  C    2.410407   2.677140   1.460019   2.453076   0.000000
    11  H    5.497312   6.660326   5.349826   4.534295   6.662629
    12  H    4.910188   5.975509   4.767190   4.306763   5.952260
    13  H    5.426454   6.421016   5.654366   5.269889   7.005381
    14  H    2.091654   2.348696   3.360688   4.146372   4.476596
    15  H    2.165203   2.963754   2.998481   3.214362   4.332414
    16  H    2.667722   3.853986   2.115974   1.087149   3.380472
    17  H    3.261814   4.337210   2.114779   1.097694   2.850170
    18  H    3.196916   4.112062   2.094453   1.097724   2.594689
    19  H    3.264633   3.668035   2.088857   2.619223   1.094637
    20  H    2.509657   2.312421   2.092213   3.372833   1.088458
    21  H    2.956283   3.086117   2.124719   2.828877   1.098349
    22  C    3.347819   4.019851   3.921202   4.339555   5.070565
    23  H    4.370578   5.101304   4.830056   5.024117   6.009003
    24  H    3.542415   3.917831   4.416349   5.061476   5.487432
    25  C    3.397899   3.960446   3.625196   4.212278   4.436084
    26  H    3.637675   4.408291   3.459176   3.734045   4.247899
    27  H    2.757852   3.090821   3.055750   3.979280   3.653786
    28  O    4.693288   5.061215   4.977934   5.598047   5.631039
    29  C    5.356646   5.594414   5.427042   6.121252   5.742156
    30  H    6.355804   6.529006   6.500962   7.193099   6.810226
    31  H    5.043671   5.072241   5.146726   6.051210   5.242914
    32  H    5.586428   5.975086   5.387586   5.889844   5.637424
                   11         12         13         14         15
    11  H    0.000000
    12  H    1.781413   0.000000
    13  H    1.773915   1.768470   0.000000
    14  H    5.356032   4.850399   4.705023   0.000000
    15  H    4.555747   4.583911   4.438061   1.770552   0.000000
    16  H    3.794498   3.889425   4.558681   3.795787   2.543320
    17  H    4.264488   3.853570   5.119261   4.793735   4.029340
    18  H    5.329420   5.295581   6.230885   4.943465   3.855122
    19  H    6.672599   5.876920   7.152556   5.275723   5.086716
    20  H    7.261568   6.373073   7.364460   4.374583   4.642834
    21  H    7.293383   6.787329   7.756244   5.013401   4.651014
    22  C    3.960314   2.797501   2.969820   2.612301   3.355004
    23  H    3.535549   2.322626   2.232199   3.534168   4.090062
    24  H    4.874749   3.834686   3.688361   2.271974   3.506367
    25  C    4.683206   3.161416   4.015756   3.446788   4.236827
    26  H    4.189224   2.611534   3.897785   4.101104   4.483718
    27  H    5.446720   4.066759   4.907369   3.154534   4.088194
    28  O    5.522723   3.852599   4.577186   4.459722   5.488620
    29  C    6.558240   4.815910   5.813803   5.511395   6.535815
    30  H    7.262315   5.503142   6.363023   6.306032   7.435181
    31  H    7.187440   5.512671   6.508155   5.377449   6.502284
    32  H    6.336512   4.582981   5.849942   6.029152   6.804704
                   16         17         18         19         20
    16  H    0.000000
    17  H    1.780191   0.000000
    18  H    1.767200   1.772663   0.000000
    19  H    3.675812   2.593810   2.727725   0.000000
    20  H    4.193904   3.739772   3.642905   1.790664   0.000000
    21  H    3.703586   3.411813   2.545148   1.779222   1.772325
    22  C    4.048462   4.382080   5.415789   5.397694   5.060856
    23  H    4.631542   4.923414   6.109866   6.229746   6.063525
    24  H    4.767047   5.254412   6.090908   5.960162   5.300722
    25  C    4.300916   4.022347   5.272334   4.553054   4.318870
    26  H    3.905515   3.292124   4.780476   4.138113   4.352053
    27  H    4.245839   3.951769   4.951938   3.894034   3.358393
    28  O    5.694800   5.315437   6.649675   5.669871   5.359579
    29  C    6.439680   5.712543   7.090810   5.601028   5.366225
    30  H    7.467775   6.770742   8.174518   6.668524   6.381563
    31  H    6.486520   5.753766   6.945269   5.165809   4.699364
    32  H    6.286511   5.305444   6.816006   5.296377   5.413114
                   21         22         23         24         25
    21  H    0.000000
    22  C    5.962954   0.000000
    23  H    6.912783   1.089999   0.000000
    24  H    6.333939   1.095172   1.753228   0.000000
    25  C    5.468361   1.531835   2.141626   2.150420   0.000000
    26  H    5.286312   2.174823   2.540371   3.068916   1.103731
    27  H    4.683128   2.179681   3.061125   2.477822   1.100544
    28  O    6.694034   2.361304   2.522628   2.625285   1.413040
    29  C    6.832629   3.664793   3.887785   3.928060   2.357236
    30  H    7.895801   4.385593   4.436910   4.515762   3.276453
    31  H    6.301500   4.021398   4.494434   4.140199   2.656268
    32  H    6.731621   4.067384   4.216048   4.574117   2.662522
                   26         27         28         29         30
    26  H    0.000000
    27  H    1.776570   0.000000
    28  O    2.083304   2.077852   0.000000
    29  C    2.674629   2.608379   1.413580   0.000000
    30  H    3.648134   3.599035   2.026265   1.092256   0.000000
    31  H    3.086697   2.426811   2.088465   1.100621   1.784550
    32  H    2.505832   2.994431   2.089220   1.101260   1.784131
                   31         32
    31  H    0.000000
    32  H    1.784438   0.000000
 Stoichiometry    C9H18N2O3
 Framework group  C1[X(C9H18N2O3)]
 Deg. of freedom    90
 Full point group                 C1      NOp   1
 Largest Abelian subgroup         C1      NOp   1
 Largest concise Abelian subgroup C1      NOp   1
                         Standard orientation:                         
 ---------------------------------------------------------------------
 Center     Atomic      Atomic             Coordinates (Angstroms)
 Number     Number       Type             X           Y           Z
 ---------------------------------------------------------------------
      1          6           0        0.763442    3.010998   -0.793757
      2          6           0       -0.318686    2.244478   -0.046925
      3          8           0       -1.491566    2.612417   -0.105000
      4          7           0        0.062995    1.167747    0.720287
      5          6           0       -0.940530    0.359102    1.413244
      6          6           0       -1.435535   -0.982538    0.809257
      7          8           0       -1.475260   -1.937940    1.584037
      8          7           0       -1.732957   -1.133340   -0.520508
      9          6           0       -2.170021   -0.078098   -1.425833
     10          6           0       -2.043706   -2.485897   -0.974027
     11          1           0        0.259319    3.750482   -1.414801
     12          1           0        1.377553    2.363814   -1.426457
     13          1           0        1.431722    3.533667   -0.101317
     14          1           0       -0.545792    0.064179    2.386520
     15          1           0       -1.807544    1.007121    1.578004
     16          1           0       -2.188479    0.891236   -0.933955
     17          1           0       -1.517663   -0.022104   -2.306871
     18          1           0       -3.186388   -0.299059   -1.776791
     19          1           0       -1.727092   -2.591096   -2.016581
     20          1           0       -1.522495   -3.207776   -0.347952
     21          1           0       -3.120740   -2.693047   -0.915228
     22          6           0        1.450301    0.714321    0.831837
     23          1           0        2.130658    1.536204    0.608853
     24          1           0        1.637517    0.423765    1.871034
     25          6           0        1.802763   -0.464855   -0.080210
     26          1           0        1.549174   -0.224841   -1.127258
     27          1           0        1.227744   -1.360139    0.200892
     28          8           0        3.189830   -0.688938    0.069829
     29          6           0        3.649828   -1.811735   -0.655386
     30          1           0        4.722443   -1.899935   -0.468999
     31          1           0        3.153343   -2.738486   -0.329804
     32          1           0        3.485278   -1.693800   -1.737878
 ---------------------------------------------------------------------
 Rotational constants (GHZ):      0.6554304      0.5489174      0.3767002
 Standard basis: 6-31G(d,p) (6D, 7F)
 There are   300 symmetry adapted basis functions of A   symmetry.
 Integral buffers will be    131072 words long.
 Raffenetti 2 integral format.
 Two-electron integral symmetry is turned on.
   300 basis functions,   518 primitive gaussians,   300 cartesian basis functions
    55 alpha electrons       55 beta electrons
       nuclear repulsion energy       989.0887609886 Hartrees.
 NAtoms=   32 NActive=   32 NUniq=   32 SFac= 1.00D+00 NAtFMM=   60 NAOKFM=F Big=F
 One-electron integrals computed using PRISM.
 NBasis=   300 RedAO= T  NBF=   300
 NBsUse=   300 1.00D-06 NBFU=   300
 Initial guess read from the read-write file.
 B after Tr=     0.000000    0.000000    0.000000
         Rot=    1.000000    0.000000    0.000000    0.000000 Ang=   0.00 deg.
 Initial guess orbital symmetries:
       Occupied  (A) (A) (A) (A) (A) (A) (A) (A) (A) (A) (A) (A)
                 (A) (A) (A) (A) (A) (A) (A) (A) (A) (A) (A) (A)
                 (A) (A) (A) (A) (A) (A) (A) (A) (A) (A) (A) (A)
                 (A) (A) (A) (A) (A) (A) (A) (A) (A) (A) (A) (A)
                 (A) (A) (A) (A) (A) (A) (A)
       Virtual   (A) (A) (A) (A) (A) (A) (A) (A) (A) (A) (A) (A)
                 (A) (A) (A) (A) (A) (A) (A) (A) (A) (A) (A) (A)
                 (A) (A) (A) (A) (A) (A) (A) (A) (A) (A) (A) (A)
                 (A) (A) (A) (A) (A) (A) (A) (A) (A) (A) (A) (A)
                 (A) (A) (A) (A) (A) (A) (A) (A) (A) (A) (A) (A)
                 (A) (A) (A) (A) (A) (A) (A) (A) (A) (A) (A) (A)
                 (A) (A) (A) (A) (A) (A) (A) (A) (A) (A) (A) (A)
                 (A) (A) (A) (A) (A) (A) (A) (A) (A) (A) (A) (A)
                 (A) (A) (A) (A) (A) (A) (A) (A) (A) (A) (A) (A)
                 (A) (A) (A) (A) (A) (A) (A) (A) (A) (A) (A) (A)
                 (A) (A) (A) (A) (A) (A) (A) (A) (A) (A) (A) (A)
                 (A) (A) (A) (A) (A) (A) (A) (A) (A) (A) (A) (A)
                 (A) (A) (A) (A) (A) (A) (A) (A) (A) (A) (A) (A)
                 (A) (A) (A) (A) (A) (A) (A) (A) (A) (A) (A) (A)
                 (A) (A) (A) (A) (A) (A) (A) (A) (A) (A) (A) (A)
                 (A) (A) (A) (A) (A) (A) (A) (A) (A) (A) (A) (A)
                 (A) (A) (A) (A) (A) (A) (A) (A) (A) (A) (A) (A)
                 (A) (A) (A) (A) (A) (A) (A) (A) (A) (A) (A) (A)
                 (A) (A) (A) (A) (A) (A) (A) (A) (A) (A) (A) (A)
                 (A) (A) (A) (A) (A) (A) (A) (A) (A) (A) (A) (A)
                 (A) (A) (A) (A) (A)
 Harris functional with IExCor=  402 diagonalized for initial guess.
 ExpMin= 1.61D-01 ExpMax= 5.48D+03 ExpMxC= 8.25D+02 IAcc=1 IRadAn=         1 AccDes= 0.00D+00
 HarFok:  IExCor=  402 AccDes= 0.00D+00 IRadAn=         1 IDoV= 1
 ScaDFX=  1.000000  1.000000  1.000000  1.000000
 FoFCou: FMM=F IPFlag=           0 FMFlag=      100000 FMFlg1=           0
         NFxFlg=           0 DoJE=T BraDBF=F KetDBF=T FulRan=T
         Omega=  0.000000  0.000000  1.000000  0.000000  0.000000 ICntrl=     500 IOpCl=  0
         NMat0=    1 NMatS0=    1 NMatT0=    0 NMatD0=    1 NMtDS0=    0 NMtDT0=    0
         I1Cent=           4 NGrid=           0.
 Petite list used in FoFCou.
