 Entering Gaussian System, Link 0=/data/opt/apps/g09-C01/g09
 Initial command:
 /data/opt/apps/g09-C01/l1.exe /tmp/g09-tuu61186-14396808992ad8ea4x/Gau-1439697.inp -scrdir=/tmp/g09-tuu61186-14396808992ad8ea4x/
 Entering Link 1 = /data/opt/apps/g09-C01/l1.exe PID=   1439698.
  
 Copyright (c) 1988,1990,1992,1993,1995,1998,2003,2009,2011,
            Gaussian, Inc.  All Rights Reserved.
  
 This is part of the Gaussian(R) 09 program.  It is based on
 the Gaussian(R) 03 system (copyright 2003, Gaussian, Inc.),
 the Gaussian(R) 98 system (copyright 1998, Gaussian, Inc.),
 the Gaussian(R) 94 system (copyright 1995, Gaussian, Inc.),
 the Gaussian 92(TM) system (copyright 1992, Gaussian, Inc.),
 the Gaussian 90(TM) system (copyright 1990, Gaussian, Inc.),
 the Gaussian 88(TM) system (copyright 1988, Gaussian, Inc.),
 the Gaussian 86(TM) system (copyright 1986, Carnegie Mellon
 University), and the Gaussian 82(TM) system (copyright 1983,
 Carnegie Mellon University). Gaussian is a federally registered
 trademark of Gaussian, Inc.
  
 This software contains proprietary and confidential information,
 including trade secrets, belonging to Gaussian, Inc.
  
 This software is provided under written license and may be
 used, copied, transmitted, or stored only in accord with that
 written license.
  
 The following legend is applicable only to US Government
 contracts under FAR:
  
                    RESTRICTED RIGHTS LEGEND
  
 Use, reproduction and disclosure by the US Government is
 subject to restrictions as set forth in subparagraphs (a)
 and (c) of the Commercial Computer Software - Restricted
 Rights clause in FAR 52.227-19.
  
 Gaussian, Inc.
 340 Quinnipiac St., Bldg. 40, Wallingford CT 06492
  
  
 ---------------------------------------------------------------
 Warning -- This program may not be used in any manner that
 competes with the business of Gaussian, Inc. or will provide
 assistance to any competitor of Gaussian, Inc.  The licensee
 of this program is prohibited from giving any competitor of
 Gaussian, Inc. access to this program.  By using this program,
 the user acknowledges that Gaussian, Inc. is engaged in the
 business of creating and licensing software in the field of
 computational chemistry and represents and warrants to the
 licensee that it is not a competitor of Gaussian, Inc. and that
 it will not use this program in any manner prohibited above.
 ---------------------------------------------------------------
  

 Cite this work as:
 Gaussian 09, Revision C.01,
 M. J. Frisch, G. W. Trucks, H. B. Schlegel, G. E. Scuseria, 
 M. A. Robb, J. R. Cheeseman, G. Scalmani, V. Barone, B. Mennucci, 
 G. A. Petersson, H. Nakatsuji, M. Caricato, X. Li, H. P. Hratchian, 
 A. F. Izmaylov, J. Bloino, G. Zheng, J. L. Sonnenberg, M. Hada, 
 M. Ehara, K. Toyota, R. Fukuda, J. Hasegawa, M. Ishida, T. Nakajima, 
 Y. Honda, O. Kitao, H. Nakai, T. Vreven, J. A. Montgomery, Jr., 
 J. E. Peralta, F. Ogliaro, M. Bearpark, J. J. Heyd, E. Brothers, 
 K. N. Kudin, V. N. Staroverov, T. Keith, R. Kobayashi, J. Normand, 
 K. Raghavachari, A. Rendell, J. C. Burant, S. S. Iyengar, J. Tomasi, 
 M. Cossi, N. Rega, J. M. Millam, M. Klene, J. E. Knox, J. B. Cross, 
 V. Bakken, C. Adamo, J. Jaramillo, R. Gomperts, R. E. Stratmann, 
 O. Yazyev, A. J. Austin, R. Cammi, C. Pomelli, J. W. Ochterski, 
 R. L. Martin, K. Morokuma, V. G. Zakrzewski, G. A. Voth, 
 P. Salvador, J. J. Dannenberg, S. Dapprich, A. D. Daniels, 
 O. Farkas, J. B. Foresman, J. V. Ortiz, J. Cioslowski, 
 and D. J. Fox, Gaussian, Inc., Wallingford CT, 2010.
 
 ******************************************
 Gaussian 09:  EM64L-G09RevC.01 23-Sep-2011
                15-Apr-2026 
 ******************************************
 %nprocshared=8
 Will use up to    8 processors via shared memory.
 %mem=16GB
 ----------------------
 # opt b3lyp/6-31g(d,p)
 ----------------------
 1/14=-1,18=20,19=15,26=3,38=1/1,3;
 2/9=110,12=2,17=6,18=5,40=1/2;
 3/5=1,6=6,7=101,11=2,16=1,25=1,30=1,71=1,74=-5/1,2,3;
 4//1;
 5/5=2,38=5/2;
 6/7=2,8=2,9=2,10=2,28=1/1;
 7//1,2,3,16;
 1/14=-1,18=20,19=15/3(2);
 2/9=110/2;
 99//99;
 2/9=110/2;
 3/5=1,6=6,7=101,11=2,16=1,25=1,30=1,71=1,74=-5/1,2,3;
 4/5=5,16=3/1;
 5/5=2,38=5/2;
 7//1,2,3,16;
 1/14=-1,18=20,19=15/3(-5);
 2/9=110/2;
 6/7=2,8=2,9=2,10=2,19=2,28=1/1;
 99/9=1/99;
 ---------------
 QM dihedral opt
 ---------------
 Charge =  0 Multiplicity = 1
 Symbolic Z-Matrix:
 C                     0.50562  -0.22921   0.18068 
 C                    -0.10211   0.9989   -0.44541 
 O                    -0.9748    0.90549  -1.31069 
 C                     0.42565   2.35146   0.01422 
 N                     0.11857   2.5587    1.44055 
 C                     0.68178   3.84734   1.91163 
 C                    -0.05385   5.04013   1.2757 
 O                    -1.26025   4.95268   1.01911 
 N                     0.67362   6.18408   0.97944 
 C                     2.01732   6.47798   1.45391 
 C                    -0.01113   7.2562    0.27568 
 H                     0.17536  -1.11716  -0.36577 
 H                     0.18932  -0.314     1.22214 
 H                     1.59473  -0.1718    0.12328 
 H                     1.50568   2.36923  -0.16734 
 H                    -0.04018   3.12191  -0.60962 
 H                    -0.90269   2.64001   1.52545 
 H                     0.53863   3.91843   2.99569 
 H                     1.7539    3.85605   1.70536 
 H                     2.69244   6.47275   0.59231 
 H                     2.02311   7.47148   1.91191 
 H                     2.36829   5.76152   2.19643 
 H                    -0.69782   6.84642  -0.47112 
 H                    -0.57973   7.84199   1.00339 
 H                     0.71654   7.89744  -0.23057 
 

 GradGradGradGradGradGradGradGradGradGradGradGradGradGradGradGradGradGrad
 Berny optimization.
 Initialization pass.
                           ----------------------------
                           !    Initial Parameters    !
                           ! (Angstroms and Degrees)  !
 --------------------------                            --------------------------
 ! Name  Definition              Value          Derivative Info.                !
 --------------------------------------------------------------------------------
 ! R1    R(1,2)                  1.5065         estimate D2E/DX2                !
 ! R2    R(1,12)                 1.0937         estimate D2E/DX2                !
 ! R3    R(1,13)                 1.0917         estimate D2E/DX2                !
 ! R4    R(1,14)                 1.0921         estimate D2E/DX2                !
 ! R5    R(2,3)                  1.2325         estimate D2E/DX2                !
 ! R6    R(2,4)                  1.5229         estimate D2E/DX2                !
 ! R7    R(4,5)                  1.4737         estimate D2E/DX2                !
 ! R8    R(4,15)                 1.0953         estimate D2E/DX2                !
 ! R9    R(4,16)                 1.0953         estimate D2E/DX2                !
 ! R10   R(5,6)                  1.4831         estimate D2E/DX2                !
 ! R11   R(5,17)                 1.028          estimate D2E/DX2                !
 ! R12   R(6,7)                  1.5389         estimate D2E/DX2                !
 ! R13   R(6,18)                 1.0958         estimate D2E/DX2                !
 ! R14   R(6,19)                 1.0918         estimate D2E/DX2                !
 ! R15   R(7,8)                  1.2365         estimate D2E/DX2                !
 ! R16   R(7,9)                  1.3877         estimate D2E/DX2                !
 ! R17   R(9,10)                 1.455          estimate D2E/DX2                !
 ! R18   R(9,11)                 1.4538         estimate D2E/DX2                !
 ! R19   R(10,20)                1.0946         estimate D2E/DX2                !
 ! R20   R(10,21)                1.094          estimate D2E/DX2                !
 ! R21   R(10,22)                1.0899         estimate D2E/DX2                !
 ! R22   R(11,23)                1.0942         estimate D2E/DX2                !
 ! R23   R(11,24)                1.0936         estimate D2E/DX2                !
 ! R24   R(11,25)                1.0941         estimate D2E/DX2                !
 ! A1    A(2,1,12)             109.4141         estimate D2E/DX2                !
 ! A2    A(2,1,13)             110.0531         estimate D2E/DX2                !
 ! A3    A(2,1,14)             109.7302         estimate D2E/DX2                !
 ! A4    A(12,1,13)            109.0318         estimate D2E/DX2                !
 ! A5    A(12,1,14)            108.5151         estimate D2E/DX2                !
 ! A6    A(13,1,14)            110.0684         estimate D2E/DX2                !
 ! A7    A(1,2,3)              121.0391         estimate D2E/DX2                !
 ! A8    A(1,2,4)              117.3092         estimate D2E/DX2                !
 ! A9    A(3,2,4)              121.6404         estimate D2E/DX2                !
 ! A10   A(2,4,5)              110.17           estimate D2E/DX2                !
 ! A11   A(2,4,15)             107.8238         estimate D2E/DX2                !
 ! A12   A(2,4,16)             107.7846         estimate D2E/DX2                !
 ! A13   A(5,4,15)             111.3229         estimate D2E/DX2                !
 ! A14   A(5,4,16)             111.3283         estimate D2E/DX2                !
 ! A15   A(15,4,16)            108.2719         estimate D2E/DX2                !
 ! A16   A(4,5,6)              110.5166         estimate D2E/DX2                !
 ! A17   A(4,5,17)             107.3418         estimate D2E/DX2                !
 ! A18   A(6,5,17)             106.3973         estimate D2E/DX2                !
 ! A19   A(5,6,7)              111.1407         estimate D2E/DX2                !
 ! A20   A(5,6,18)             108.7225         estimate D2E/DX2                !
 ! A21   A(5,6,19)             108.6517         estimate D2E/DX2                !
 ! A22   A(7,6,18)             107.2222         estimate D2E/DX2                !
 ! A23   A(7,6,19)             112.6523         estimate D2E/DX2                !
 ! A24   A(18,6,19)            108.3407         estimate D2E/DX2                !
 ! A25   A(6,7,8)              119.8228         estimate D2E/DX2                !
 ! A26   A(6,7,9)              118.4623         estimate D2E/DX2                !
 ! A27   A(8,7,9)              121.7011         estimate D2E/DX2                !
 ! A28   A(7,9,10)             125.5235         estimate D2E/DX2                !
 ! A29   A(7,9,11)             117.669          estimate D2E/DX2                !
 ! A30   A(10,9,11)            116.3508         estimate D2E/DX2                !
 ! A31   A(9,10,20)            108.1764         estimate D2E/DX2                !
 ! A32   A(9,10,21)            108.9561         estimate D2E/DX2                !
 ! A33   A(9,10,22)            112.7539         estimate D2E/DX2                !
 ! A34   A(20,10,21)           109.3054         estimate D2E/DX2                !
 ! A35   A(20,10,22)           109.5425         estimate D2E/DX2                !
 ! A36   A(21,10,22)           108.063          estimate D2E/DX2                !
 ! A37   A(9,11,23)            110.4757         estimate D2E/DX2                !
 ! A38   A(9,11,24)            108.5288         estimate D2E/DX2                !
 ! A39   A(9,11,25)            110.0568         estimate D2E/DX2                !
 ! A40   A(23,11,24)           109.176          estimate D2E/DX2                !
 ! A41   A(23,11,25)           108.7296         estimate D2E/DX2                !
 ! A42   A(24,11,25)           109.8623         estimate D2E/DX2                !
 ! D1    D(12,1,2,3)             9.2805         estimate D2E/DX2                !
 ! D2    D(12,1,2,4)          -169.5157         estimate D2E/DX2                !
 ! D3    D(13,1,2,3)          -110.5021         estimate D2E/DX2                !
 ! D4    D(13,1,2,4)            70.7017         estimate D2E/DX2                !
 ! D5    D(14,1,2,3)           128.2338         estimate D2E/DX2                !
 ! D6    D(14,1,2,4)           -50.5624         estimate D2E/DX2                !
 ! D7    D(1,2,4,5)            -64.2969         estimate D2E/DX2                !
 ! D8    D(1,2,4,15)            57.3724         estimate D2E/DX2                !
 ! D9    D(1,2,4,16)           174.0517         estimate D2E/DX2                !
 ! D10   D(3,2,4,5)            116.9146         estimate D2E/DX2                !
 ! D11   D(3,2,4,15)          -121.416          estimate D2E/DX2                !
 ! D12   D(3,2,4,16)            -4.7368         estimate D2E/DX2                !
 ! D13   D(2,4,5,6)            177.4898         estimate D2E/DX2                !
 ! D14   D(2,4,5,17)           -66.8761         estimate D2E/DX2                !
 ! D15   D(15,4,5,6)            57.923          estimate D2E/DX2                !
 ! D16   D(15,4,5,17)          173.5571         estimate D2E/DX2                !
 ! D17   D(16,4,5,6)           -62.989          estimate D2E/DX2                !
 ! D18   D(16,4,5,17)           52.6451         estimate D2E/DX2                !
 ! D19   D(4,5,6,7)             68.669          estimate D2E/DX2                !
 ! D20   D(4,5,6,18)          -173.5409         estimate D2E/DX2                !
 ! D21   D(4,5,6,19)           -55.8265         estimate D2E/DX2                !
 ! D22   D(17,5,6,7)           -47.5542         estimate D2E/DX2                !
 ! D23   D(17,5,6,18)           70.2359         estimate D2E/DX2                !
 ! D24   D(17,5,6,19)         -172.0497         estimate D2E/DX2                !
 ! D25   D(5,6,7,8)             33.1825         estimate D2E/DX2                !
 ! D26   D(5,6,7,9)           -145.4865         estimate D2E/DX2                !
 ! D27   D(18,6,7,8)           -85.5137         estimate D2E/DX2                !
 ! D28   D(18,6,7,9)            95.8173         estimate D2E/DX2                !
 ! D29   D(19,6,7,8)           155.3862         estimate D2E/DX2                !
 ! D30   D(19,6,7,9)           -23.2828         estimate D2E/DX2                !
 ! D31   D(6,7,9,10)           -13.2174         estimate D2E/DX2                !
 ! D32   D(6,7,9,11)           174.8474         estimate D2E/DX2                !
 ! D33   D(8,7,9,10)           168.1398         estimate D2E/DX2                !
 ! D34   D(8,7,9,11)            -3.7954         estimate D2E/DX2                !
 ! D35   D(7,9,10,20)          113.3269         estimate D2E/DX2                !
 ! D36   D(7,9,10,21)         -127.9425         estimate D2E/DX2                !
 ! D37   D(7,9,10,22)           -7.9712         estimate D2E/DX2                !
 ! D38   D(11,9,10,20)         -74.6432         estimate D2E/DX2                !
 ! D39   D(11,9,10,21)          44.0873         estimate D2E/DX2                !
 ! D40   D(11,9,10,22)         164.0587         estimate D2E/DX2                !
 ! D41   D(7,9,11,23)          -37.9247         estimate D2E/DX2                !
 ! D42   D(7,9,11,24)           81.741          estimate D2E/DX2                !
 ! D43   D(7,9,11,25)         -158.005          estimate D2E/DX2                !
 ! D44   D(10,9,11,23)         149.3959         estimate D2E/DX2                !
 ! D45   D(10,9,11,24)         -90.9384         estimate D2E/DX2                !
 ! D46   D(10,9,11,25)          29.3156         estimate D2E/DX2                !
 --------------------------------------------------------------------------------
 Trust Radius=3.00D-01 FncErr=1.00D-07 GrdErr=1.00D-06
 Number of steps in this run=    122 maximum allowed number of steps=    150.
 GradGradGradGradGradGradGradGradGradGradGradGradGradGradGradGradGradGrad

                          Input orientation:                          
 ---------------------------------------------------------------------
 Center     Atomic      Atomic             Coordinates (Angstroms)
 Number     Number       Type             X           Y           Z
 ---------------------------------------------------------------------
      1          6           0        0.505620   -0.229210    0.180680
      2          6           0       -0.102110    0.998900   -0.445410
      3          8           0       -0.974800    0.905490   -1.310690
      4          6           0        0.425650    2.351460    0.014220
      5          7           0        0.118570    2.558700    1.440550
      6          6           0        0.681780    3.847340    1.911630
      7          6           0       -0.053850    5.040130    1.275700
      8          8           0       -1.260250    4.952680    1.019110
      9          7           0        0.673620    6.184080    0.979440
     10          6           0        2.017320    6.477980    1.453910
     11          6           0       -0.011130    7.256200    0.275680
     12          1           0        0.175360   -1.117160   -0.365770
     13          1           0        0.189320   -0.314000    1.222140
     14          1           0        1.594730   -0.171800    0.123280
     15          1           0        1.505680    2.369230   -0.167340
     16          1           0       -0.040180    3.121910   -0.609620
     17          1           0       -0.902690    2.640010    1.525450
     18          1           0        0.538630    3.918430    2.995690
     19          1           0        1.753900    3.856050    1.705360
     20          1           0        2.692440    6.472750    0.592310
     21          1           0        2.023110    7.471480    1.911910
     22          1           0        2.368290    5.761520    2.196430
     23          1           0       -0.697820    6.846420   -0.471120
     24          1           0       -0.579730    7.841990    1.003390
     25          1           0        0.716540    7.897440   -0.230570
 ---------------------------------------------------------------------
                    Distance matrix (angstroms):
                    1          2          3          4          5
     1  C    0.000000
     2  C    1.506512   0.000000
     3  O    2.388173   1.232486   0.000000
     4  C    2.587269   1.522895   2.409871   0.000000
     5  N    3.083751   2.457340   3.390853   1.473657   0.000000
     6  C    4.432322   3.779382   4.667128   2.429696   1.483144
     7  C    5.410917   4.392731   4.963145   3.008355   2.492870
     8  O    5.538343   4.372469   4.678589   3.258590   2.794619
     9  N    6.465024   5.433051   5.985440   3.960065   3.696496
    10  C    6.992335   6.174117   6.902785   4.651267   4.355018
    11  C    7.503827   6.299369   6.616400   4.931086   4.841513
    12  H    1.093679   2.135660   2.511345   3.498337   4.096091
    13  H    1.091730   2.142279   3.042624   2.935915   2.881859
    14  H    1.092132   2.138507   3.133578   2.783071   3.371925
    15  H    2.805910   2.130755   3.098801   1.095329   2.131967
    16  H    3.486040   2.130252   2.505500   1.095339   2.132042
    17  H    3.467588   2.686719   3.325274   2.032625   1.028004
    18  H    5.012812   4.558001   5.469295   3.370063   2.108027
    19  H    4.535659   4.029130   5.024755   2.624499   2.104173
    20  H    7.061720   6.232929   6.932852   4.738940   4.760683
    21  H    8.037447   7.208870   7.904735   5.689263   5.290072
    22  H    6.589509   5.980363   6.859823   4.490479   3.986308
    23  H    7.206778   5.877842   6.006350   4.658584   4.765031
    24  H    8.185298   7.011064   7.322983   5.668789   5.347138
    25  H    8.139782   6.950266   7.274246   5.558996   5.626043
                    6          7          8          9         10
     6  C    0.000000
     7  C    1.538930   0.000000
     8  O    2.406211   1.236482   0.000000
     9  N    2.515830   1.387661   2.292983   0.000000
    10  C    2.985539   2.527631   3.641161   1.455001   0.000000
    11  C    3.844058   2.431631   2.723820   1.453823   2.471530
    12  H    5.485369   6.376455   6.389196   7.440830   8.024351
    13  H    4.246724   5.359917   5.466296   6.520621   7.037492
    14  H    4.492790   5.586600   5.934115   6.479094   6.794758
    15  H    2.680622   3.412947   3.966390   4.069460   4.446578
    16  H    2.721062   2.689644   2.737344   3.522997   4.444622
    17  H    2.029119   2.558023   2.394300   3.917054   4.823027
    18  H    1.095779   2.137197   2.865748   3.035895   3.333903
    19  H    1.091817   2.203319   3.280036   2.667150   2.647099
    20  H    3.560356   3.171992   4.256352   2.075773   1.094609
    21  H    3.864396   3.260366   4.233426   2.085191   1.094002
    22  H    2.567004   2.689779   3.899565   2.128739   1.089877
    23  H    4.071274   2.593986   2.474543   2.103251   3.348653
    24  H    4.286436   2.863760   2.968412   2.078491   2.967854
    25  H    4.581871   3.320628   3.760453   2.097992   2.558196
                   11         12         13         14         15
    11  C    0.000000
    12  H    8.399964   0.000000
    13  H    7.631769   1.779528   0.000000
    14  H    7.601131   1.774116   1.789662   0.000000
    15  H    5.136093   3.736849   3.295934   2.559145   0.000000
    16  H    4.228115   4.251545   3.900448   3.749480   1.775337
    17  H    4.864773   4.342261   3.163962   4.013660   2.956198
    18  H    4.340668   6.065356   4.602278   5.108431   3.652392
    19  H    4.089051   5.613750   4.480037   4.330345   2.404008
    20  H    2.832550   8.053592   7.261010   6.750926   4.338703
    21  H    2.619490   9.075613   8.028217   7.861453   5.533893
    22  H    3.403673   7.660943   6.527564   6.332506   4.223640
    23  H    1.094154   8.012000   7.411192   7.407058   4.999292
    24  H    1.093626   9.094566   8.195088   8.350072   5.972491
    25  H    1.094066   9.031842   8.355601   8.124596   5.584608
                   16         17         18         19         20
    16  H    0.000000
    17  H    2.352589   0.000000
    18  H    3.737342   2.423503   0.000000
    19  H    3.019407   2.927216   1.773619   0.000000
    20  H    4.487759   5.337191   4.115785   2.994471   0.000000
    21  H    5.434523   5.661516   4.000303   3.631318   1.785163
    22  H    4.543367   4.570924   2.717251   2.061417   1.784411
    23  H    3.784659   4.660703   4.703265   4.437376   3.572727
    24  H    5.017178   5.238077   4.540299   4.671863   3.570840
    25  H    4.849948   5.774607   5.125712   4.599649   2.571197
                   21         22         23         24         25
    21  H    0.000000
    22  H    1.767502   0.000000
    23  H    3.670557   4.206407   0.000000
    24  H    2.781629   3.800332   1.783055   0.000000
    25  H    2.545346   3.630532   1.778460   1.790544   0.000000
 Stoichiometry    C7H14N2O2
 Framework group  C1[X(C7H14N2O2)]
 Deg. of freedom    69
 Full point group                 C1      NOp   1
 Largest Abelian subgroup         C1      NOp   1
 Largest concise Abelian subgroup C1      NOp   1
                         Standard orientation:                         
 ---------------------------------------------------------------------
 Center     Atomic      Atomic             Coordinates (Angstroms)
 Number     Number       Type             X           Y           Z
 ---------------------------------------------------------------------
      1          6           0       -3.888915   -0.809366   -0.141840
      2          6           0       -2.896837    0.301983   -0.366037
      3          8           0       -3.268277    1.471237   -0.483937
      4          6           0       -1.427091   -0.083519   -0.468236
      5          7           0       -0.960080   -0.649170    0.809889
      6          6           0        0.454010   -1.082895    0.700580
      7          6           0        1.395284    0.125496    0.551914
      8          8           0        1.120182    1.192042    1.113772
      9          7           0        2.525787   -0.010457   -0.241235
     10          6           0        3.062745   -1.267613   -0.739497
     11          6           0        3.341342    1.172516   -0.462698
     12          1           0       -4.903509   -0.423250   -0.274681
     13          1           0       -3.787579   -1.202860    0.871455
     14          1           0       -3.722354   -1.604983   -0.871225
     15          1           0       -1.326199   -0.806929   -1.284473
     16          1           0       -0.862929    0.816551   -0.735371
     17          1           0       -0.978490    0.107980    1.504997
     18          1           0        0.735222   -1.601522    1.623985
     19          1           0        0.540007   -1.787470   -0.129023
     20          1           0        2.952373   -1.278341   -1.828474
     21          1           0        4.124586   -1.327053   -0.482980
     22          1           0        2.563044   -2.137632   -0.313824
     23          1           0        2.708643    2.058170   -0.574415
     24          1           0        3.999274    1.307609    0.400373
     25          1           0        3.939490    1.051276   -1.370719
 ---------------------------------------------------------------------
 Rotational constants (GHZ):      2.2988211      0.4713083      0.4397284
 Standard basis: 6-31G(d,p) (6D, 7F)
 There are   235 symmetry adapted basis functions of A   symmetry.
 Integral buffers will be    131072 words long.
 Raffenetti 2 integral format.
 Two-electron integral symmetry is turned on.
   235 basis functions,   406 primitive gaussians,   235 cartesian basis functions
    43 alpha electrons       43 beta electrons
       nuclear repulsion energy       630.8238755049 Hartrees.
 NAtoms=   25 NActive=   25 NUniq=   25 SFac= 1.00D+00 NAtFMM=   60 NAOKFM=F Big=F
 One-electron integrals computed using PRISM.
 NBasis=   235 RedAO= T  NBF=   235
 NBsUse=   235 1.00D-06 NBFU=   235
 Harris functional with IExCor=  402 diagonalized for initial guess.
 ExpMin= 1.61D-01 ExpMax= 5.48D+03 ExpMxC= 8.25D+02 IAcc=1 IRadAn=         1 AccDes= 0.00D+00
 HarFok:  IExCor=  402 AccDes= 0.00D+00 IRadAn=         1 IDoV= 1
 ScaDFX=  1.000000  1.000000  1.000000  1.000000
 FoFCou: FMM=F IPFlag=           0 FMFlag=      100000 FMFlg1=           0
         NFxFlg=           0 DoJE=T BraDBF=F KetDBF=T FulRan=T
         Omega=  0.000000  0.000000  1.000000  0.000000  0.000000 ICntrl=     500 IOpCl=  0
         NMat0=    1 NMatS0=    1 NMatT0=    0 NMatD0=    1 NMtDS0=    0 NMtDT0=    0
         I1Cent=           4 NGrid=           0.
 Petite list used in FoFCou.
 Initial guess orbital symmetries:
       Occupied  (A) (A) (A) (A) (A) (A) (A) (A) (A) (A) (A) (A)
                 (A) (A) (A) (A) (A) (A) (A) (A) (A) (A) (A) (A)
                 (A) (A) (A) (A) (A) (A) (A) (A) (A) (A) (A) (A)
                 (A) (A) (A) (A) (A) (A) (A)
       Virtual   (A) (A) (A) (A) (A) (A) (A) (A) (A) (A) (A) (A)
                 (A) (A) (A) (A) (A) (A) (A) (A) (A) (A) (A) (A)
                 (A) (A) (A) (A) (A) (A) (A) (A) (A) (A) (A) (A)
                 (A) (A) (A) (A) (A) (A) (A) (A) (A) (A) (A) (A)
                 (A) (A) (A) (A) (A) (A) (A) (A) (A) (A) (A) (A)
                 (A) (A) (A) (A) (A) (A) (A) (A) (A) (A) (A) (A)
                 (A) (A) (A) (A) (A) (A) (A) (A) (A) (A) (A) (A)
                 (A) (A) (A) (A) (A) (A) (A) (A) (A) (A) (A) (A)
                 (A) (A) (A) (A) (A) (A) (A) (A) (A) (A) (A) (A)
                 (A) (A) (A) (A) (A) (A) (A) (A) (A) (A) (A) (A)
                 (A) (A) (A) (A) (A) (A) (A) (A) (A) (A) (A) (A)
                 (A) (A) (A) (A) (A) (A) (A) (A) (A) (A) (A) (A)
                 (A) (A) (A) (A) (A) (A) (A) (A) (A) (A) (A) (A)
                 (A) (A) (A) (A) (A) (A) (A) (A) (A) (A) (A) (A)
                 (A) (A) (A) (A) (A) (A) (A) (A) (A) (A) (A) (A)
                 (A) (A) (A) (A) (A) (A) (A) (A) (A) (A) (A) (A)
 The electronic state of the initial guess is 1-A.
 Requested convergence on RMS density matrix=1.00D-08 within 128 cycles.
 Requested convergence on MAX density matrix=1.00D-06.
 Requested convergence on             energy=1.00D-06.
 No special actions if energy rises.
 Keep R1 ints in memory in canonical form, NReq=391462831.
 Integral accuracy reduced to 1.0D-05 until final iterations.
 Initial convergence to 1.0D-05 achieved.  Increase integral accuracy.
 SCF Done:  E(RB3LYP) =  -535.133042316     A.U. after   15 cycles
             Convg  =    0.5719D-08             -V/T =  2.0095

 **********************************************************************

            Population analysis using the SCF density.

 **********************************************************************

 Orbital symmetries:
       Occupied  (A) (A) (A) (A) (A) (A) (A) (A) (A) (A) (A) (A)
                 (A) (A) (A) (A) (A) (A) (A) (A) (A) (A) (A) (A)
                 (A) (A) (A) (A) (A) (A) (A) (A) (A) (A) (A) (A)
                 (A) (A) (A) (A) (A) (A) (A)
       Virtual   (A) (A) (A) (A) (A) (A) (A) (A) (A) (A) (A) (A)
                 (A) (A) (A) (A) (A) (A) (A) (A) (A) (A) (A) (A)
                 (A) (A) (A) (A) (A) (A) (A) (A) (A) (A) (A) (A)
                 (A) (A) (A) (A) (A) (A) (A) (A) (A) (A) (A) (A)
                 (A) (A) (A) (A) (A) (A) (A) (A) (A) (A) (A) (A)
                 (A) (A) (A) (A) (A) (A) (A) (A) (A) (A) (A) (A)
                 (A) (A) (A) (A) (A) (A) (A) (A) (A) (A) (A) (A)
                 (A) (A) (A) (A) (A) (A) (A) (A) (A) (A) (A) (A)
                 (A) (A) (A) (A) (A) (A) (A) (A) (A) (A) (A) (A)
                 (A) (A) (A) (A) (A) (A) (A) (A) (A) (A) (A) (A)
                 (A) (A) (A) (A) (A) (A) (A) (A) (A) (A) (A) (A)
                 (A) (A) (A) (A) (A) (A) (A) (A) (A) (A) (A) (A)
                 (A) (A) (A) (A) (A) (A) (A) (A) (A) (A) (A) (A)
                 (A) (A) (A) (A) (A) (A) (A) (A) (A) (A) (A) (A)
                 (A) (A) (A) (A) (A) (A) (A) (A) (A) (A) (A) (A)
                 (A) (A) (A) (A) (A) (A) (A) (A) (A) (A) (A) (A)
 The electronic state is 1-A.
 Alpha  occ. eigenvalues --  -19.13192 -19.11562 -14.37150 -14.33068 -10.28680
 Alpha  occ. eigenvalues --  -10.26923 -10.23704 -10.22637 -10.21957 -10.21138
 Alpha  occ. eigenvalues --  -10.18053  -1.03068  -1.02245  -0.93631  -0.90556
 Alpha  occ. eigenvalues --   -0.75983  -0.73682  -0.72347  -0.69221  -0.64842
 Alpha  occ. eigenvalues --   -0.54922  -0.53806  -0.51345  -0.48826  -0.47986
 Alpha  occ. eigenvalues --   -0.47323  -0.45451  -0.45079  -0.42596  -0.41936
 Alpha  occ. eigenvalues --   -0.41780  -0.41349  -0.40918  -0.39680  -0.38495
 Alpha  occ. eigenvalues --   -0.37745  -0.36853  -0.34995  -0.33952  -0.26036
 Alpha  occ. eigenvalues --   -0.24283  -0.23976  -0.23216
 Alpha virt. eigenvalues --   -0.01607   0.01781   0.07641   0.10054   0.11560
 Alpha virt. eigenvalues --    0.11687   0.13002   0.13338   0.14028   0.14314
 Alpha virt. eigenvalues --    0.14725   0.15193   0.16198   0.17014   0.18738
 Alpha virt. eigenvalues --    0.19448   0.19717   0.20821   0.22385   0.24180
 Alpha virt. eigenvalues --    0.24623   0.26951   0.30524   0.33877   0.35199
 Alpha virt. eigenvalues --    0.38034   0.47838   0.49484   0.50402   0.52496
 Alpha virt. eigenvalues --    0.54332   0.55056   0.55363   0.56294   0.57463
 Alpha virt. eigenvalues --    0.58107   0.61985   0.62603   0.64809   0.65249
 Alpha virt. eigenvalues --    0.65804   0.68157   0.70415   0.71760   0.73020
 Alpha virt. eigenvalues --    0.73853   0.76129   0.78473   0.79728   0.80498
 Alpha virt. eigenvalues --    0.81547   0.82830   0.83024   0.84664   0.85445
 Alpha virt. eigenvalues --    0.85883   0.86991   0.87501   0.88590   0.88973
 Alpha virt. eigenvalues --    0.89827   0.90872   0.91536   0.93256   0.94926
 Alpha virt. eigenvalues --    0.95492   0.96726   1.00892   1.02749   1.03424
 Alpha virt. eigenvalues --    1.07062   1.09291   1.10836   1.14106   1.17235
 Alpha virt. eigenvalues --    1.22464   1.24550   1.27408   1.30328   1.31795
 Alpha virt. eigenvalues --    1.34971   1.37927   1.38301   1.43449   1.46710
 Alpha virt. eigenvalues --    1.50730   1.54165   1.57877   1.61045   1.63788
 Alpha virt. eigenvalues --    1.66005   1.70143   1.70927   1.73263   1.74967
 Alpha virt. eigenvalues --    1.75592   1.77712   1.78519   1.80530   1.81824
 Alpha virt. eigenvalues --    1.83417   1.87588   1.88666   1.89489   1.91956
 Alpha virt. eigenvalues --    1.93460   1.94177   1.95224   1.96707   1.99355
 Alpha virt. eigenvalues --    2.00250   2.01596   2.01774   2.02631   2.02809
 Alpha virt. eigenvalues --    2.03871   2.04213   2.05685   2.06474   2.09197
 Alpha virt. eigenvalues --    2.11683   2.13164   2.15239   2.16276   2.17789
 Alpha virt. eigenvalues --    2.19201   2.21443   2.27240   2.29087   2.31242
 Alpha virt. eigenvalues --    2.32613   2.32937   2.35470   2.39182   2.39976
 Alpha virt. eigenvalues --    2.43117   2.44470   2.49230   2.50816   2.52542
 Alpha virt. eigenvalues --    2.54822   2.55658   2.57976   2.61459   2.62941
 Alpha virt. eigenvalues --    2.64792   2.66232   2.67530   2.68543   2.69301
 Alpha virt. eigenvalues --    2.70316   2.73227   2.78360   2.81752   2.82936
 Alpha virt. eigenvalues --    2.84074   2.86112   2.87311   2.88761   2.90774
 Alpha virt. eigenvalues --    2.92618   2.93574   2.97910   3.02842   3.04168
 Alpha virt. eigenvalues --    3.08043   3.12323   3.18324   3.21429   3.24629
 Alpha virt. eigenvalues --    3.26981   3.31405   3.35901   3.39910   3.40579
 Alpha virt. eigenvalues --    3.42201   3.42356   3.44242   3.46006   3.49995
 Alpha virt. eigenvalues --    3.52183   3.95828   4.00065   4.11135   4.12820
 Alpha virt. eigenvalues --    4.22756   4.32017   4.48128   4.51004   4.54036
 Alpha virt. eigenvalues --    4.62107   4.66947
          Condensed to atoms (all electrons):
              1          2          3          4          5          6
     1  C    5.182068   0.314707  -0.087860  -0.131952   0.007030  -0.000124
     2  C    0.314707   4.542663   0.579262   0.319529  -0.043900   0.003702
     3  O   -0.087860   0.579262   8.005472  -0.078302  -0.000124  -0.000052
     4  C   -0.131952   0.319529  -0.078302   5.111940   0.271317  -0.052388
     5  N    0.007030  -0.043900  -0.000124   0.271317   6.803937   0.342238
     6  C   -0.000124   0.003702  -0.000052  -0.052388   0.342238   5.034397
     7  C    0.000002  -0.000306  -0.000025  -0.001771  -0.052957   0.298091
     8  O   -0.000001  -0.000160   0.000004  -0.002097  -0.014296  -0.081594
     9  N    0.000000   0.000000   0.000000   0.000529   0.002937  -0.098422
    10  C    0.000000   0.000001   0.000000   0.000005   0.000169  -0.001383
    11  C    0.000000   0.000000   0.000000  -0.000022  -0.000104   0.005927
    12  H    0.360735  -0.022917   0.004416   0.005903   0.000179   0.000005
    13  H    0.367376  -0.020901   0.000866   0.000284   0.006035   0.000061
    14  H    0.355547  -0.021661   0.002463   0.003279  -0.000710  -0.000025
    15  H   -0.001639  -0.018824   0.002705   0.350735  -0.037672  -0.007859
    16  H    0.008042  -0.029349   0.005711   0.341235  -0.042547  -0.007786
    17  H    0.000064  -0.000932   0.001244  -0.039464   0.331277  -0.049096
    18  H    0.000008  -0.000090   0.000001   0.005501  -0.032439   0.370528
    19  H   -0.000016   0.000010   0.000000  -0.006750  -0.035564   0.365123
    20  H    0.000000   0.000000   0.000000  -0.000023   0.000020  -0.000152
    21  H    0.000000   0.000000   0.000000   0.000001  -0.000009  -0.000295
    22  H    0.000000   0.000000   0.000000   0.000011   0.000001   0.003201
    23  H    0.000000   0.000000   0.000000  -0.000032  -0.000005   0.000300
    24  H    0.000000   0.000000   0.000000   0.000002  -0.000003  -0.000164
    25  H    0.000000   0.000000   0.000000   0.000000   0.000003  -0.000039
              7          8          9         10         11         12
     1  C    0.000002  -0.000001   0.000000   0.000000   0.000000   0.360735
     2  C   -0.000306  -0.000160   0.000000   0.000001   0.000000  -0.022917
     3  O   -0.000025   0.000004   0.000000   0.000000   0.000000   0.004416
     4  C   -0.001771  -0.002097   0.000529   0.000005  -0.000022   0.005903
     5  N   -0.052957  -0.014296   0.002937   0.000169  -0.000104   0.000179
     6  C    0.298091  -0.081594  -0.098422  -0.001383   0.005927   0.000005
     7  C    4.537196   0.548795   0.233518  -0.023657  -0.022413   0.000000
     8  O    0.548795   8.122824  -0.099381   0.002721   0.004336   0.000000
     9  N    0.233518  -0.099381   7.073790   0.291094   0.274832   0.000000
    10  C   -0.023657   0.002721   0.291094   4.799711  -0.047302   0.000000
    11  C   -0.022413   0.004336   0.274832  -0.047302   4.793050   0.000000
    12  H    0.000000   0.000000   0.000000   0.000000   0.000000   0.569630
    13  H    0.000004   0.000000   0.000000   0.000000   0.000000  -0.022351
    14  H    0.000002   0.000000   0.000000   0.000000   0.000000  -0.027193
    15  H   -0.001681   0.000139   0.000019  -0.000022  -0.000006  -0.000248
    16  H    0.010016   0.006581  -0.001775   0.000014   0.000097  -0.000135
    17  H   -0.005277   0.021249   0.000887  -0.000041  -0.000025  -0.000038
    18  H   -0.039266  -0.000904   0.003267  -0.000321  -0.000238   0.000000
    19  H   -0.034639   0.002858   0.002588  -0.002439  -0.000167   0.000000
    20  H    0.000375  -0.000058  -0.051724   0.388277  -0.001404   0.000000
    21  H    0.001019  -0.000023  -0.043830   0.385775  -0.002795   0.000000
    22  H   -0.006051   0.000057  -0.028739   0.386324   0.004269   0.000000
    23  H   -0.004758   0.010643  -0.034522   0.003926   0.389348   0.000000
    24  H   -0.002954   0.001711  -0.048774  -0.000248   0.393060   0.000000
    25  H    0.004313   0.000697  -0.039639  -0.001538   0.380076   0.000000
             13         14         15         16         17         18
     1  C    0.367376   0.355547  -0.001639   0.008042   0.000064   0.000008
     2  C   -0.020901  -0.021661  -0.018824  -0.029349  -0.000932  -0.000090
     3  O    0.000866   0.002463   0.002705   0.005711   0.001244   0.000001
     4  C    0.000284   0.003279   0.350735   0.341235  -0.039464   0.005501
     5  N    0.006035  -0.000710  -0.037672  -0.042547   0.331277  -0.032439
     6  C    0.000061  -0.000025  -0.007859  -0.007786  -0.049096   0.370528
     7  C    0.000004   0.000002  -0.001681   0.010016  -0.005277  -0.039266
     8  O    0.000000   0.000000   0.000139   0.006581   0.021249  -0.000904
     9  N    0.000000   0.000000   0.000019  -0.001775   0.000887   0.003267
    10  C    0.000000   0.000000  -0.000022   0.000014  -0.000041  -0.000321
    11  C    0.000000   0.000000  -0.000006   0.000097  -0.000025  -0.000238
    12  H   -0.022351  -0.027193  -0.000248  -0.000135  -0.000038   0.000000
    13  H    0.543348  -0.022606  -0.000335   0.000050  -0.000167  -0.000017
    14  H   -0.022606   0.594007   0.001857  -0.000170   0.000023  -0.000001
    15  H   -0.000335   0.001857   0.635326  -0.041014   0.006415   0.000304
    16  H    0.000050  -0.000170  -0.041014   0.634388  -0.005424  -0.000197
    17  H   -0.000167   0.000023   0.006415  -0.005424   0.469525  -0.000737
    18  H   -0.000017  -0.000001   0.000304  -0.000197  -0.000737   0.593894
    19  H    0.000003   0.000000   0.006810  -0.000980   0.006656  -0.030738
    20  H    0.000000   0.000000   0.000029   0.000022   0.000002  -0.000064
    21  H    0.000000   0.000000   0.000000  -0.000001   0.000001   0.000096
    22  H    0.000000   0.000000  -0.000017  -0.000005  -0.000007   0.000591
    23  H    0.000000   0.000000   0.000001   0.000234  -0.000007  -0.000019
    24  H    0.000000   0.000000   0.000000  -0.000005   0.000000   0.000051
    25  H    0.000000   0.000000   0.000000  -0.000004   0.000000  -0.000001
             19         20         21         22         23         24
     1  C   -0.000016   0.000000   0.000000   0.000000   0.000000   0.000000
     2  C    0.000010   0.000000   0.000000   0.000000   0.000000   0.000000
     3  O    0.000000   0.000000   0.000000   0.000000   0.000000   0.000000
     4  C   -0.006750  -0.000023   0.000001   0.000011  -0.000032   0.000002
     5  N   -0.035564   0.000020  -0.000009   0.000001  -0.000005  -0.000003
     6  C    0.365123  -0.000152  -0.000295   0.003201   0.000300  -0.000164
     7  C   -0.034639   0.000375   0.001019  -0.006051  -0.004758  -0.002954
     8  O    0.002858  -0.000058  -0.000023   0.000057   0.010643   0.001711
     9  N    0.002588  -0.051724  -0.043830  -0.028739  -0.034522  -0.048774
    10  C   -0.002439   0.388277   0.385775   0.386324   0.003926  -0.000248
    11  C   -0.000167  -0.001404  -0.002795   0.004269   0.389348   0.393060
    12  H    0.000000   0.000000   0.000000   0.000000   0.000000   0.000000
    13  H    0.000003   0.000000   0.000000   0.000000   0.000000   0.000000
    14  H    0.000000   0.000000   0.000000   0.000000   0.000000   0.000000
    15  H    0.006810   0.000029   0.000000  -0.000017   0.000001   0.000000
    16  H   -0.000980   0.000022  -0.000001  -0.000005   0.000234  -0.000005
    17  H    0.006656   0.000002   0.000001  -0.000007  -0.000007   0.000000
    18  H   -0.030738  -0.000064   0.000096   0.000591  -0.000019   0.000051
    19  H    0.618717   0.000514   0.000182   0.000627  -0.000033  -0.000001
    20  H    0.000514   0.611147  -0.043752  -0.031860   0.000359  -0.000868
    21  H    0.000182  -0.043752   0.602800  -0.026237  -0.000296   0.004768
    22  H    0.000627  -0.031860  -0.026237   0.569704  -0.000218  -0.000139
    23  H   -0.000033   0.000359  -0.000296  -0.000218   0.542846  -0.033029
    24  H   -0.000001  -0.000868   0.004768  -0.000139  -0.033029   0.598761
    25  H   -0.000018   0.004044  -0.002492   0.000203  -0.025246  -0.038472
             25
     1  C    0.000000
     2  C    0.000000
     3  O    0.000000
     4  C    0.000000
     5  N    0.000003
     6  C   -0.000039
     7  C    0.004313
     8  O    0.000697
     9  N   -0.039639
    10  C   -0.001538
    11  C    0.380076
    12  H    0.000000
    13  H    0.000000
    14  H    0.000000
    15  H    0.000000
    16  H   -0.000004
    17  H    0.000000
    18  H   -0.000001
    19  H   -0.000018
    20  H    0.004044
    21  H   -0.002492
    22  H    0.000203
    23  H   -0.025246
    24  H   -0.038472
    25  H    0.611875
 Mulliken atomic charges:
              1
     1  C   -0.373987
     2  C    0.399167
     3  O   -0.435781
     4  C   -0.097470
     5  N   -0.504812
     6  C   -0.124193
     7  C    0.562424
     8  O   -0.524100
     9  N   -0.436656
    10  C   -0.181064
    11  C   -0.170519
    12  H    0.132013
    13  H    0.148350
    14  H    0.115189
    15  H    0.104979
    16  H    0.123003
    17  H    0.263874
    18  H    0.130789
    19  H    0.107257
    20  H    0.125114
    21  H    0.125087
    22  H    0.128285
    23  H    0.150509
    24  H    0.126302
    25  H    0.106240
 Sum of Mulliken atomic charges =   0.00000
 Mulliken charges with hydrogens summed into heavy atoms:
              1
     1  C    0.021566
     2  C    0.399167
     3  O   -0.435781
     4  C    0.130511
     5  N   -0.240938
     6  C    0.113853
     7  C    0.562424
     8  O   -0.524100
     9  N   -0.436656
    10  C    0.197422
    11  C    0.212532
 Sum of Mulliken charges with hydrogens summed into heavy atoms =   0.00000
 Electronic spatial extent (au):  <R**2>=           2627.5109
 Charge=              0.0000 electrons
 Dipole moment (field-independent basis, Debye):
    X=              3.6895    Y=             -4.2384    Z=             -1.6726  Tot=              5.8630
 Quadrupole moment (field-independent basis, Debye-Ang):
   XX=            -61.5117   YY=            -71.3330   ZZ=            -65.9430
   XY=              4.2093   XZ=             -3.9848   YZ=             -0.1663
 Traceless Quadrupole moment (field-independent basis, Debye-Ang):
   XX=              4.7509   YY=             -5.0704   ZZ=              0.3196
   XY=              4.2093   XZ=             -3.9848   YZ=             -0.1663
 Octapole moment (field-independent basis, Debye-Ang**2):
  XXX=             45.5674  YYY=             -2.0297  ZZZ=              2.2520  XYY=             18.8416
  XXY=            -26.6897  XXZ=             -2.8820  XZZ=             -2.6076  YZZ=             -1.4939
  YYZ=             -3.4044  XYZ=            -10.4859
 Hexadecapole moment (field-independent basis, Debye-Ang**3):
 XXXX=          -2591.0212 YYYY=           -465.3801 ZZZZ=           -246.2981 XXXY=             86.0243
 XXXZ=            -33.3163 YYYX=              1.3126 YYYZ=              1.0584 ZZZX=              0.0117
 ZZZY=             -1.4106 XXYY=           -556.6103 XXZZ=           -480.1546 YYZZ=           -121.6260
 XXYZ=             15.0193 YYXZ=             -7.9812 ZZXY=             -6.9496
 N-N= 6.308238755049D+02 E-N=-2.508310536565D+03  KE= 5.300708785236D+02
 Calling FoFJK, ICntrl=      2127 FMM=F ISym2X=0 I1Cent= 0 IOpClX= 0 NMat=1 NMatS=1 NMatT=0.
 ***** Axes restored to original set *****
 -------------------------------------------------------------------
 Center     Atomic                   Forces (Hartrees/Bohr)
 Number     Number              X              Y              Z
 -------------------------------------------------------------------
      1        6          -0.001898966   -0.005807023   -0.004489548
      2        6          -0.017497392   -0.006060958   -0.020740850
      3        8           0.016096949    0.005645147    0.016181560
      4        6          -0.013436446    0.003072203   -0.001125758
      5        7           0.009046026    0.007768213    0.004533856
      6        6          -0.010249063   -0.009494962   -0.003170240
      7        6           0.000041656    0.015129874   -0.004952017
      8        8           0.013021520    0.000111050    0.000550541
      9        7          -0.009676614   -0.019842328    0.003643425
     10        6          -0.003064697   -0.000821290   -0.005725794
     11        6          -0.003367588    0.000405608    0.001403366
     12        1          -0.001150086    0.001617071    0.000748655
     13        1           0.003768892    0.001219098    0.002859413
     14        1           0.002383243   -0.000084314    0.005226190
     15        1           0.002466380    0.000729214    0.005236394
     16        1           0.000294406   -0.000074887   -0.004645322
     17        1           0.006545537    0.001059416   -0.001494630
     18        1           0.001453811   -0.001423500    0.001369675
     19        1          -0.000181008   -0.001353690    0.000304588
     20        1           0.006577708    0.002182148    0.002359686
     21        1           0.002414914    0.000845662    0.000951141
     22        1          -0.001332722    0.000227619   -0.000922632
     23        1           0.000397051   -0.000202161    0.003581246
     24        1          -0.003211835    0.005705840   -0.003379475
     25        1           0.000558325   -0.000553051    0.001696529
 -------------------------------------------------------------------
 Cartesian Forces:  Max     0.020740850 RMS     0.006561158

 GradGradGradGradGradGradGradGradGradGradGradGradGradGradGradGradGradGrad
 Berny optimization.
 Internal  Forces:  Max     0.023185526 RMS     0.004288366
 Search for a local minimum.
 Step number   1 out of a maximum of  122
 All quantities printed in internal units (Hartrees-Bohrs-Radians)
 Mixed Optimization -- RFO/linear search
 Second derivative matrix not updated -- first step.
 ITU=  0
     Eigenvalues ---    0.00251   0.00463   0.00572   0.00592   0.00680
     Eigenvalues ---    0.00717   0.00909   0.00964   0.00980   0.01238
     Eigenvalues ---    0.01855   0.03182   0.04918   0.05202   0.06414
     Eigenvalues ---    0.06483   0.07308   0.07369   0.07504   0.07531
     Eigenvalues ---    0.07694   0.07774   0.09564   0.09629   0.10345
     Eigenvalues ---    0.13006   0.13084   0.16000   0.16000   0.16000
     Eigenvalues ---    0.16000   0.16000   0.16000   0.16000   0.16000
     Eigenvalues ---    0.16000   0.21984   0.22006   0.23732   0.24747
     Eigenvalues ---    0.24860   0.24994   0.24994   0.25000   0.25000
     Eigenvalues ---    0.28614   0.30089   0.31704   0.34153   0.34203
     Eigenvalues ---    0.34204   0.34212   0.34285   0.34337   0.34347
     Eigenvalues ---    0.34354   0.34391   0.34397   0.34567   0.34603
     Eigenvalues ---    0.34613   0.34827   0.35306   0.37597   0.37748
     Eigenvalues ---    0.43085   0.47728   0.88438   0.90058
 RFO step:  Lambda=-8.57906698D-03 EMin= 2.50974298D-03
 Linear search not attempted -- first point.
 Iteration  1 RMS(Cart)=  0.13635632 RMS(Int)=  0.00452136
 Iteration  2 RMS(Cart)=  0.00871671 RMS(Int)=  0.00033711
 Iteration  3 RMS(Cart)=  0.00002064 RMS(Int)=  0.00033690
 Iteration  4 RMS(Cart)=  0.00000001 RMS(Int)=  0.00033690
 Variable       Old X    -DE/DX   Delta X   Delta X   Delta X     New X
                                 (Linear)    (Quad)   (Total)
    R1        2.84690   0.00555   0.00000   0.01703   0.01703   2.86393
    R2        2.06675  -0.00134   0.00000  -0.00380  -0.00380   2.06295
    R3        2.06307   0.00154   0.00000   0.00435   0.00435   2.06742
    R4        2.06383   0.00210   0.00000   0.00592   0.00592   2.06975
    R5        2.32906  -0.02319   0.00000  -0.02550  -0.02550   2.30356
    R6        2.87785   0.00256   0.00000   0.00827   0.00827   2.88612
    R7        2.78481  -0.00118   0.00000  -0.00327  -0.00327   2.78153
    R8        2.06987   0.00158   0.00000   0.00449   0.00449   2.07436
    R9        2.06989   0.00247   0.00000   0.00704   0.00704   2.07693
   R10        2.80274  -0.01113   0.00000  -0.03174  -0.03174   2.77100
   R11        1.94265  -0.00654   0.00000  -0.01489  -0.01489   1.92776
   R12        2.90816   0.00167   0.00000   0.00567   0.00567   2.91382
   R13        2.07072   0.00107   0.00000   0.00306   0.00306   2.07379
   R14        2.06324  -0.00025   0.00000  -0.00069  -0.00069   2.06254
   R15        2.33661  -0.01283   0.00000  -0.01436  -0.01436   2.32225
   R16        2.62230  -0.01631   0.00000  -0.03358  -0.03358   2.58872
   R17        2.74955   0.00365   0.00000   0.00949   0.00949   2.75904
   R18        2.74733   0.00500   0.00000   0.01295   0.01295   2.76028
   R19        2.06851   0.00219   0.00000   0.00623   0.00623   2.07474
   R20        2.06736   0.00118   0.00000   0.00335   0.00335   2.07071
   R21        2.05957  -0.00121   0.00000  -0.00338  -0.00338   2.05618
   R22        2.06765  -0.00262   0.00000  -0.00744  -0.00744   2.06021
   R23        2.06665   0.00248   0.00000   0.00703   0.00703   2.07368
   R24        2.06749  -0.00074   0.00000  -0.00209  -0.00209   2.06539
    A1        1.90964  -0.00111   0.00000   0.00112   0.00099   1.91063
    A2        1.92079   0.00047   0.00000  -0.00324  -0.00323   1.91756
    A3        1.91515   0.00346   0.00000   0.01874   0.01862   1.93377
    A4        1.90296   0.00098   0.00000   0.00923   0.00922   1.91218
    A5        1.89395   0.00130   0.00000   0.01977   0.01952   1.91347
    A6        1.92106  -0.00510   0.00000  -0.04517  -0.04515   1.87591
    A7        2.11253   0.00500   0.00000   0.01979   0.01885   2.13138
    A8        2.04743  -0.00089   0.00000  -0.00299  -0.00388   2.04355
    A9        2.12303  -0.00408   0.00000  -0.01535  -0.01620   2.10683
   A10        1.92283  -0.00103   0.00000  -0.00573  -0.00664   1.91619
   A11        1.88188   0.00276   0.00000   0.00083  -0.00036   1.88152
   A12        1.88120  -0.00149   0.00000   0.00728   0.00658   1.88777
   A13        1.94295  -0.00641   0.00000  -0.06704  -0.06708   1.87587
   A14        1.94305   0.00591   0.00000   0.05908   0.05919   2.00224
   A15        1.88970   0.00035   0.00000   0.00629   0.00713   1.89684
   A16        1.92888   0.01030   0.00000   0.04196   0.04200   1.97088
   A17        1.87347  -0.00268   0.00000  -0.01016  -0.01008   1.86339
   A18        1.85698  -0.00299   0.00000  -0.01236  -0.01231   1.84467
   A19        1.93977   0.00361   0.00000   0.01845   0.01841   1.95818
   A20        1.89757  -0.00242   0.00000  -0.01824  -0.01833   1.87923
   A21        1.89633  -0.00145   0.00000  -0.00593  -0.00614   1.89020
   A22        1.87138   0.00039   0.00000   0.00670   0.00680   1.87818
   A23        1.96615  -0.00004   0.00000   0.00802   0.00798   1.97413
   A24        1.89090  -0.00026   0.00000  -0.01064  -0.01080   1.88011
   A25        2.09130  -0.00280   0.00000  -0.01080  -0.01080   2.08050
   A26        2.06756   0.00571   0.00000   0.02211   0.02210   2.08966
   A27        2.12408  -0.00290   0.00000  -0.01117  -0.01118   2.11291
   A28        2.19080   0.00071   0.00000   0.00215   0.00210   2.19290
   A29        2.05371  -0.00165   0.00000  -0.00709  -0.00713   2.04658
   A30        2.03070   0.00090   0.00000   0.00290   0.00286   2.03356
   A31        1.88803   0.01046   0.00000   0.06671   0.06641   1.95444
   A32        1.90164   0.00235   0.00000   0.01213   0.01161   1.91326
   A33        1.96793  -0.00428   0.00000  -0.02839  -0.02829   1.93964
   A34        1.90774  -0.00474   0.00000  -0.02175  -0.02263   1.88511
   A35        1.91188  -0.00300   0.00000  -0.01489  -0.01462   1.89726
   A36        1.88606  -0.00096   0.00000  -0.01448  -0.01458   1.87148
   A37        1.92816  -0.00312   0.00000  -0.01996  -0.02006   1.90810
   A38        1.89418   0.01088   0.00000   0.06723   0.06735   1.96153
   A39        1.92085  -0.00323   0.00000  -0.02049  -0.02060   1.90026
   A40        1.90548  -0.00346   0.00000  -0.01805  -0.01793   1.88755
   A41        1.89769   0.00218   0.00000   0.00774   0.00740   1.90509
   A42        1.91746  -0.00332   0.00000  -0.01690  -0.01679   1.90067
    D1        0.16198  -0.00055   0.00000   0.00793   0.00824   0.17022
    D2       -2.95861  -0.00159   0.00000  -0.06921  -0.06971  -3.02831
    D3       -1.92863  -0.00135   0.00000  -0.00212  -0.00172  -1.93035
    D4        1.23398  -0.00240   0.00000  -0.07926  -0.07968   1.15430
    D5        2.23810   0.00245   0.00000   0.04400   0.04451   2.28262
    D6       -0.88248   0.00141   0.00000  -0.03314  -0.03344  -0.91592
    D7       -1.12219   0.00533   0.00000   0.13779   0.13735  -0.98484
    D8        1.00134  -0.00141   0.00000   0.05274   0.05229   1.05363
    D9        3.03778  -0.00034   0.00000   0.06434   0.06395   3.10173
   D10        2.04054   0.00416   0.00000   0.05970   0.06011   2.10066
   D11       -2.11911  -0.00258   0.00000  -0.02535  -0.02494  -2.14405
   D12       -0.08267  -0.00151   0.00000  -0.01375  -0.01329  -0.09596
   D13        3.09778  -0.00139   0.00000  -0.05261  -0.05239   3.04539
   D14       -1.16721  -0.00104   0.00000  -0.05100  -0.05077  -1.21798
   D15        1.01095  -0.00004   0.00000  -0.00673  -0.00757   1.00338
   D16        3.02914   0.00031   0.00000  -0.00511  -0.00596   3.02319
   D17       -1.09937  -0.00013   0.00000  -0.00927  -0.00865  -1.10802
   D18        0.91883   0.00021   0.00000  -0.00765  -0.00704   0.91179
   D19        1.19850   0.00058   0.00000   0.02421   0.02423   1.22273
   D20       -3.02886   0.00169   0.00000   0.03199   0.03184  -2.99702
   D21       -0.97436  -0.00079   0.00000   0.00575   0.00581  -0.96854
   D22       -0.82998   0.00016   0.00000   0.02169   0.02175  -0.80823
   D23        1.22585   0.00126   0.00000   0.02947   0.02936   1.25521
   D24       -3.00283  -0.00121   0.00000   0.00322   0.00333  -2.99950
   D25        0.57914  -0.00125   0.00000  -0.07940  -0.07942   0.49973
   D26       -2.53922  -0.00137   0.00000  -0.08604  -0.08607  -2.62528
   D27       -1.49249  -0.00060   0.00000  -0.07180  -0.07184  -1.56434
   D28        1.67233  -0.00072   0.00000  -0.07845  -0.07849   1.59384
   D29        2.71200  -0.00051   0.00000  -0.06775  -0.06768   2.64432
   D30       -0.40636  -0.00063   0.00000  -0.07439  -0.07433  -0.48069
   D31       -0.23069   0.00108   0.00000   0.03765   0.03767  -0.19302
   D32        3.05166   0.00139   0.00000   0.05543   0.05541   3.10707
   D33        2.93459   0.00096   0.00000   0.03085   0.03087   2.96547
   D34       -0.06624   0.00126   0.00000   0.04863   0.04862  -0.01763
   D35        1.97793   0.00017   0.00000   0.01871   0.01828   1.99620
   D36       -2.23302   0.00180   0.00000   0.03761   0.03795  -2.19507
   D37       -0.13912  -0.00054   0.00000   0.00954   0.00971  -0.12942
   D38       -1.30277  -0.00032   0.00000   0.00042  -0.00007  -1.30284
   D39        0.76947   0.00131   0.00000   0.01932   0.01961   0.78908
   D40        2.86336  -0.00102   0.00000  -0.00875  -0.00863   2.85473
   D41       -0.66191  -0.00034   0.00000   0.00946   0.00967  -0.65224
   D42        1.42665   0.00031   0.00000   0.01716   0.01718   1.44383
   D43       -2.75771   0.00103   0.00000   0.02575   0.02559  -2.73212
   D44        2.60745  -0.00007   0.00000   0.02557   0.02574   2.63319
   D45       -1.58717   0.00058   0.00000   0.03327   0.03325  -1.55392
   D46        0.51165   0.00130   0.00000   0.04186   0.04166   0.55331
         Item               Value     Threshold  Converged?
 Maximum Force            0.023186     0.000450     NO 
 RMS     Force            0.004288     0.000300     NO 
 Maximum Displacement     0.436196     0.001800     NO 
 RMS     Displacement     0.136016     0.001200     NO 
 Predicted change in Energy=-4.864150D-03
 GradGradGradGradGradGradGradGradGradGradGradGradGradGradGradGradGradGrad

                          Input orientation:                          
 ---------------------------------------------------------------------
 Center     Atomic      Atomic             Coordinates (Angstroms)
 Number     Number       Type             X           Y           Z
 ---------------------------------------------------------------------
      1          6           0        0.453566   -0.257967    0.306015
      2          6           0       -0.090300    0.911809   -0.489379
      3          8           0       -0.940720    0.770132   -1.351152
      4          6           0        0.417111    2.302950   -0.115458
      5          7           0        0.156978    2.561794    1.309986
      6          6           0        0.731856    3.828185    1.774689
      7          6           0       -0.003088    5.050953    1.189677
      8          8           0       -1.192047    4.951591    0.895313
      9          7           0        0.679578    6.221360    0.987888
     10          6           0        2.019759    6.520981    1.483681
     11          6           0       -0.057864    7.331508    0.390121
     12          1           0        0.102009   -1.192687   -0.134945
     13          1           0        0.113761   -0.191986    1.343840
     14          1           0        1.548700   -0.245202    0.316940
     15          1           0        1.505320    2.313125   -0.259179
     16          1           0       -0.035797    3.029482   -0.804636
     17          1           0       -0.853002    2.663739    1.410995
     18          1           0        0.620055    3.864298    2.865782
     19          1           0        1.799947    3.822541    1.550160
     20          1           0        2.743639    6.637814    0.666524
     21          1           0        2.000229    7.455712    2.055183
     22          1           0        2.373512    5.740563    2.154307
     23          1           0       -0.744087    6.944594   -0.363516
     24          1           0       -0.643439    7.891088    1.130485
     25          1           0        0.652324    8.011642   -0.086960
 ---------------------------------------------------------------------
                    Distance matrix (angstroms):
                    1          2          3          4          5
     1  C    0.000000
     2  C    1.515526   0.000000
     3  O    2.397337   1.218991   0.000000
     4  C    2.595624   1.527271   2.391690   0.000000
     5  N    3.007819   2.453836   3.390672   1.471924   0.000000
     6  C    4.350987   3.782485   4.681889   2.449094   1.466349
     7  C    5.401298   4.467588   5.065609   3.071068   2.497200
     8  O    5.494981   4.410336   4.753354   3.259808   2.775420
     9  N    6.519027   5.564743   6.149176   4.079240   3.710698
    10  C    7.056486   6.309368   7.062081   4.787223   4.378959
    11  C    7.607152   6.479746   6.845665   5.076180   4.862353
    12  H    1.091669   2.142781   2.533595   3.509865   4.023304
    13  H    1.094030   2.149580   3.049685   2.906248   2.754327
    14  H    1.095263   2.162209   3.163961   2.821443   3.286679
    15  H    2.834810   2.136044   3.091334   1.097706   2.083780
    16  H    3.504333   2.141705   2.494440   1.099064   2.174286
    17  H    3.385922   2.694884   3.350060   2.018270   1.020125
    18  H    4.855223   4.525362   5.458243   3.371466   2.081215
    19  H    4.473386   4.025557   5.024547   2.644933   2.084829
    20  H    7.275039   6.492646   7.216316   4.981493   4.870195
    21  H    8.059317   7.325829   8.059112   5.811101   5.282360
    22  H    6.563896   6.031278   6.926584   4.560320   3.966166
    23  H    7.332089   6.069413   6.256043   4.791114   4.777181
    24  H    8.263792   7.186115   7.546848   5.822750   5.392055
    25  H    8.281326   7.149899   7.521665   5.713606   5.647802
                    6          7          8          9         10
     6  C    0.000000
     7  C    1.541928   0.000000
     8  O    2.395151   1.228880   0.000000
     9  N    2.519737   1.369893   2.263596   0.000000
    10  C    2.999088   2.517803   3.622825   1.460023   0.000000
    11  C    3.848890   2.417276   2.684324   1.460676   2.483817
    12  H    5.408565   6.383472   6.363032   7.520801   8.111621
    13  H    4.090165   5.246506   5.325664   6.448089   6.979706
    14  H    4.402812   5.587394   5.903632   6.559113   6.882181
    15  H    2.651466   3.445312   3.945902   4.184654   4.583476
    16  H    2.807157   2.839840   2.814470   3.730012   4.653200
    17  H    1.999995   2.543643   2.369630   3.896728   4.810026
    18  H    1.097400   2.146110   2.889407   3.014261   3.305652
    19  H    1.091451   2.211308   3.264293   2.706605   2.708194
    20  H    3.628955   3.215016   4.287811   2.130037   1.097907
    21  H    3.853102   3.247345   4.219781   2.099253   1.095773
    22  H    2.548790   2.655994   3.862739   2.112134   1.088086
    23  H    4.057380   2.558782   2.399454   2.091933   3.351183
    24  H    4.337466   2.912030   2.999486   2.135111   3.015719
    25  H    4.579669   3.290144   3.705466   2.088337   2.561028
                   11         12         13         14         15
    11  C    0.000000
    12  H    8.541848   0.000000
    13  H    7.585644   1.785594   0.000000
    14  H    7.745511   1.787413   1.765335   0.000000
    15  H    5.296159   3.778285   3.283548   2.622753   0.000000
    16  H    4.464903   4.277171   3.875070   3.806852   1.784862
    17  H    4.843810   4.263098   3.015676   3.927731   2.911030
    18  H    4.313933   5.903036   4.361889   4.924121   3.599335
    19  H    4.136424   5.556535   4.359153   4.257991   2.374626
    20  H    2.899316   8.302849   7.349910   6.994712   4.592743
    21  H    2.650209   9.121113   7.908985   7.907556   5.661042
    22  H    3.399271   7.646591   6.399880   6.315506   4.280888
    23  H    1.090217   8.184343   7.387945   7.577140   5.149876
    24  H    1.097344   9.201738   8.121265   8.465609   6.136937
    25  H    1.092958   9.220891   8.344863   8.315172   5.764577
                   16         17         18         19         20
    16  H    0.000000
    17  H    2.389689   0.000000
    18  H    3.820867   2.393249   0.000000
    19  H    3.089330   2.898332   1.767696   0.000000
    20  H    4.786401   5.411408   4.127800   3.097924   0.000000
    21  H    5.649378   5.614170   3.931947   3.673567   1.774821
    22  H    4.680819   4.519928   2.664804   2.091119   1.776387
    23  H    4.003044   4.635350   4.666634   4.458866   3.649566
    24  H    5.267744   5.239062   4.563191   4.764382   3.641188
    25  H    5.080402   5.754124   5.091188   4.641742   2.613186
                   21         22         23         24         25
    21  H    0.000000
    22  H    1.758095   0.000000
    23  H    3.693592   4.184321   0.000000
    24  H    2.834361   3.843821   1.771445   0.000000
    25  H    2.591271   3.625405   1.779056   1.782052   0.000000
 Stoichiometry    C7H14N2O2
 Framework group  C1[X(C7H14N2O2)]
 Deg. of freedom    69
 Full point group                 C1      NOp   1
 Largest Abelian subgroup         C1      NOp   1
 Largest concise Abelian subgroup C1      NOp   1
                         Standard orientation:                         
 ---------------------------------------------------------------------
 Center     Atomic      Atomic             Coordinates (Angstroms)
 Number     Number       Type             X           Y           Z
 ---------------------------------------------------------------------
      1          6           0       -3.880287   -0.855850    0.027144
      2          6           0       -2.973290    0.290058   -0.374191
      3          8           0       -3.388419    1.428044   -0.510554
      4          6           0       -1.486343   -0.021750   -0.530151
      5          7           0       -0.964479   -0.598947    0.719272
      6          6           0        0.428065   -1.043838    0.604941
      7          6           0        1.409170    0.139170    0.480574
      8          8           0        1.116225    1.217408    0.992172
      9          7           0        2.580460   -0.019589   -0.211872
     10          6           0        3.127359   -1.290293   -0.678646
     11          6           0        3.449240    1.148299   -0.333671
     12          1           0       -4.920503   -0.526727   -0.009864
     13          1           0       -3.636279   -1.185502    1.041388
     14          1           0       -3.741689   -1.713473   -0.639845
     15          1           0       -1.383585   -0.783788   -1.313540
     16          1           0       -0.977113    0.894260   -0.861136
     17          1           0       -0.958501    0.151596    1.410145
     18          1           0        0.680075   -1.589062    1.523369
     19          1           0        0.496182   -1.746217   -0.227698
     20          1           0        3.150760   -1.349781   -1.774691
     21          1           0        4.153070   -1.406642   -0.311088
     22          1           0        2.550681   -2.129842   -0.295852
     23          1           0        2.837308    2.041318   -0.462622
     24          1           0        4.082153    1.292473    0.551089
     25          1           0        4.089640    1.022736   -1.210414
 ---------------------------------------------------------------------
 Rotational constants (GHZ):      2.4372908      0.4586822      0.4253175
 Standard basis: 6-31G(d,p) (6D, 7F)
 There are   235 symmetry adapted basis functions of A   symmetry.
 Integral buffers will be    131072 words long.
 Raffenetti 2 integral format.
 Two-electron integral symmetry is turned on.
   235 basis functions,   406 primitive gaussians,   235 cartesian basis functions
    43 alpha electrons       43 beta electrons
       nuclear repulsion energy       629.7913963789 Hartrees.
 NAtoms=   25 NActive=   25 NUniq=   25 SFac= 1.00D+00 NAtFMM=   60 NAOKFM=F Big=F
 One-electron integrals computed using PRISM.
 NBasis=   235 RedAO= T  NBF=   235
 NBsUse=   235 1.00D-06 NBFU=   235
 Initial guess read from the read-write file.
 B after Tr=     0.000000    0.000000    0.000000
         Rot=    1.000000    0.000000    0.000000    0.000000 Ang=   0.00 deg.
 Initial guess orbital symmetries:
       Occupied  (A) (A) (A) (A) (A) (A) (A) (A) (A) (A) (A) (A)
                 (A) (A) (A) (A) (A) (A) (A) (A) (A) (A) (A) (A)
                 (A) (A) (A) (A) (A) (A) (A) (A) (A) (A) (A) (A)
                 (A) (A) (A) (A) (A) (A) (A)
       Virtual   (A) (A) (A) (A) (A) (A) (A) (A) (A) (A) (A) (A)
                 (A) (A) (A) (A) (A) (A) (A) (A) (A) (A) (A) (A)
                 (A) (A) (A) (A) (A) (A) (A) (A) (A) (A) (A) (A)
                 (A) (A) (A) (A) (A) (A) (A) (A) (A) (A) (A) (A)
                 (A) (A) (A) (A) (A) (A) (A) (A) (A) (A) (A) (A)
                 (A) (A) (A) (A) (A) (A) (A) (A) (A) (A) (A) (A)
                 (A) (A) (A) (A) (A) (A) (A) (A) (A) (A) (A) (A)
                 (A) (A) (A) (A) (A) (A) (A) (A) (A) (A) (A) (A)
                 (A) (A) (A) (A) (A) (A) (A) (A) (A) (A) (A) (A)
                 (A) (A) (A) (A) (A) (A) (A) (A) (A) (A) (A) (A)
                 (A) (A) (A) (A) (A) (A) (A) (A) (A) (A) (A) (A)
                 (A) (A) (A) (A) (A) (A) (A) (A) (A) (A) (A) (A)
                 (A) (A) (A) (A) (A) (A) (A) (A) (A) (A) (A) (A)
                 (A) (A) (A) (A) (A) (A) (A) (A) (A) (A) (A) (A)
                 (A) (A) (A) (A) (A) (A) (A) (A) (A) (A) (A) (A)
                 (A) (A) (A) (A) (A) (A) (A) (A) (A) (A) (A) (A)
 Harris functional with IExCor=  402 diagonalized for initial guess.
 ExpMin= 1.61D-01 ExpMax= 5.48D+03 ExpMxC= 8.25D+02 IAcc=1 IRadAn=         1 AccDes= 0.00D+00
 HarFok:  IExCor=  402 AccDes= 0.00D+00 IRadAn=         1 IDoV= 1
 ScaDFX=  1.000000  1.000000  1.000000  1.000000
 FoFCou: FMM=F IPFlag=           0 FMFlag=      100000 FMFlg1=           0
         NFxFlg=           0 DoJE=T BraDBF=F KetDBF=T FulRan=T
         Omega=  0.000000  0.000000  1.000000  0.000000  0.000000 ICntrl=     500 IOpCl=  0
         NMat0=    1 NMatS0=    1 NMatT0=    0 NMatD0=    1 NMtDS0=    0 NMtDT0=    0
         I1Cent=           4 NGrid=           0.
 Petite list used in FoFCou.
 Requested convergence on RMS density matrix=1.00D-08 within 128 cycles.
 Requested convergence on MAX density matrix=1.00D-06.
 Requested convergence on             energy=1.00D-06.
 No special actions if energy rises.
 Keep R1 ints in memory in canonical form, NReq=391462838.
 Integral accuracy reduced to 1.0D-05 until final iterations.
 Initial convergence to 1.0D-05 achieved.  Increase integral accuracy.
 SCF Done:  E(RB3LYP) =  -535.137440834     A.U. after   13 cycles
             Convg  =    0.9254D-08             -V/T =  2.0094
 Calling FoFJK, ICntrl=      2127 FMM=F ISym2X=0 I1Cent= 0 IOpClX= 0 NMat=1 NMatS=1 NMatT=0.
 ***** Axes restored to original set *****
 -------------------------------------------------------------------
 Center     Atomic                   Forces (Hartrees/Bohr)
 Number     Number              X              Y              Z
 -------------------------------------------------------------------
      1        6           0.000512835   -0.002347780   -0.002775819
      2        6          -0.008622407   -0.000974499    0.000196201
      3        8           0.004949270   -0.000116071    0.000727006
      4        6           0.001803178    0.000147715    0.001469748
      5        7           0.000265701    0.004453841   -0.000919434
      6        6          -0.003075564   -0.005372271   -0.000934526
      7        6           0.002559822    0.003704611   -0.001719383
      8        8          -0.001350598   -0.002584830   -0.000454705
      9        7           0.001013569    0.000418304    0.001945642
     10        6          -0.002927881   -0.000483983    0.000433027
     11        6           0.000690109    0.000081503   -0.002350146
     12        1          -0.000230513    0.000424061   -0.000003684
     13        1           0.001074336    0.001313551    0.000210587
     14        1           0.000140385    0.000239713    0.001418293
     15        1           0.001213843    0.000897543   -0.000758039
     16        1          -0.000428327   -0.000305964    0.000861059
     17        1          -0.000665646   -0.000147743    0.000613958
     18        1           0.001523835    0.000810335    0.000676813
     19        1           0.001102767    0.000643992   -0.000198454
     20        1          -0.000781378   -0.000196422   -0.000372021
     21        1           0.000262531    0.000237353    0.000231537
     22        1           0.000515437   -0.000661043    0.000014190
     23        1          -0.000515194   -0.000132068    0.000813371
     24        1           0.000696607   -0.000426103    0.000686076
     25        1           0.000273285    0.000376256    0.000188704
 -------------------------------------------------------------------
 Cartesian Forces:  Max     0.008622407 RMS     0.001826598

 GradGradGradGradGradGradGradGradGradGradGradGradGradGradGradGradGradGrad
 Berny optimization.
 Using GEDIIS/GDIIS optimizer.
 Internal  Forces:  Max     0.003955580 RMS     0.000988165
 Search for a local minimum.
 Step number   2 out of a maximum of  122
 All quantities printed in internal units (Hartrees-Bohrs-Radians)
 Mixed Optimization -- En-DIIS/RFO-DIIS
 Update second derivatives using D2CorX and points    1    2
 DE= -4.40D-03 DEPred=-4.86D-03 R= 9.04D-01
 SS=  1.41D+00  RLast= 3.67D-01 DXNew= 5.0454D-01 1.1011D+00
 Trust test= 9.04D-01 RLast= 3.67D-01 DXMaxT set to 5.05D-01
 ITU=  1  0
 Use linear search instead of GDIIS.
     Eigenvalues ---    0.00249   0.00458   0.00589   0.00641   0.00686
     Eigenvalues ---    0.00720   0.00906   0.00963   0.00978   0.01248
     Eigenvalues ---    0.01859   0.03021   0.04762   0.05308   0.06314
     Eigenvalues ---    0.06628   0.07123   0.07212   0.07331   0.07406
     Eigenvalues ---    0.07567   0.07778   0.09479   0.09896   0.10669
     Eigenvalues ---    0.12954   0.13205   0.15718   0.16000   0.16000
     Eigenvalues ---    0.16000   0.16000   0.16000   0.16000   0.16000
     Eigenvalues ---    0.16897   0.21983   0.22033   0.23353   0.24677
     Eigenvalues ---    0.24802   0.24831   0.24978   0.25000   0.26196
     Eigenvalues ---    0.28598   0.29985   0.31622   0.33261   0.34154
     Eigenvalues ---    0.34204   0.34235   0.34302   0.34339   0.34353
     Eigenvalues ---    0.34358   0.34390   0.34420   0.34565   0.34609
     Eigenvalues ---    0.34656   0.34863   0.35307   0.37665   0.38141
     Eigenvalues ---    0.43214   0.47104   0.87351   0.89023
 RFO step:  Lambda=-2.15215630D-03 EMin= 2.48709548D-03
 Quartic linear search produced a step of  0.02622.
 Iteration  1 RMS(Cart)=  0.11738699 RMS(Int)=  0.00313876
 Iteration  2 RMS(Cart)=  0.00751382 RMS(Int)=  0.00067053
 Iteration  3 RMS(Cart)=  0.00000940 RMS(Int)=  0.00067051
 Iteration  4 RMS(Cart)=  0.00000000 RMS(Int)=  0.00067051
 Variable       Old X    -DE/DX   Delta X   Delta X   Delta X     New X
                                 (Linear)    (Quad)   (Total)
    R1        2.86393   0.00023   0.00045   0.00363   0.00408   2.86801
    R2        2.06295  -0.00029  -0.00010  -0.00149  -0.00159   2.06136
    R3        2.06742  -0.00005   0.00011   0.00059   0.00071   2.06812
    R4        2.06975   0.00016   0.00016   0.00147   0.00163   2.07137
    R5        2.30356  -0.00396  -0.00067  -0.00879  -0.00946   2.29410
    R6        2.88612   0.00211   0.00022   0.00841   0.00863   2.89475
    R7        2.78153  -0.00112  -0.00009  -0.00373  -0.00381   2.77772
    R8        2.07436   0.00131   0.00012   0.00461   0.00473   2.07909
    R9        2.07693  -0.00057   0.00018  -0.00046  -0.00027   2.07666
   R10        2.77100  -0.00344  -0.00083  -0.01548  -0.01631   2.75468
   R11        1.92776   0.00071  -0.00039  -0.00091  -0.00130   1.92646
   R12        2.91382   0.00029   0.00015   0.00199   0.00213   2.91596
   R13        2.07379   0.00054   0.00008   0.00212   0.00220   2.07599
   R14        2.06254   0.00112  -0.00002   0.00311   0.00309   2.06563
   R15        2.32225   0.00163  -0.00038  -0.00062  -0.00100   2.32125
   R16        2.58872  -0.00129  -0.00088  -0.00846  -0.00934   2.57938
   R17        2.75904  -0.00282   0.00025  -0.00588  -0.00564   2.75341
   R18        2.76028  -0.00038   0.00034   0.00121   0.00155   2.76183
   R19        2.07474  -0.00026   0.00016   0.00031   0.00047   2.07521
   R20        2.07071   0.00032   0.00009   0.00150   0.00159   2.07230
   R21        2.05618   0.00065  -0.00009   0.00129   0.00120   2.05738
   R22        2.06021  -0.00019  -0.00020  -0.00182  -0.00202   2.05820
   R23        2.07368  -0.00013   0.00018   0.00083   0.00101   2.07469
   R24        2.06539   0.00033  -0.00005   0.00061   0.00055   2.06594
    A1        1.91063  -0.00001   0.00003   0.00346   0.00344   1.91407
    A2        1.91756  -0.00117  -0.00008  -0.01036  -0.01045   1.90710
    A3        1.93377   0.00091   0.00049   0.00797   0.00839   1.94217
    A4        1.91218   0.00091   0.00024   0.00889   0.00914   1.92132
    A5        1.91347   0.00040   0.00051   0.01059   0.01100   1.92447
    A6        1.87591  -0.00105  -0.00118  -0.02078  -0.02200   1.85391
    A7        2.13138   0.00010   0.00049   0.00643   0.00282   2.13420
    A8        2.04355  -0.00076  -0.00010  -0.00091  -0.00508   2.03847
    A9        2.10683   0.00073  -0.00042   0.00290  -0.00158   2.10525
   A10        1.91619   0.00076  -0.00017   0.00279   0.00259   1.91878
   A11        1.88152   0.00021  -0.00001   0.00516   0.00512   1.88664
   A12        1.88777  -0.00021   0.00017  -0.00105  -0.00091   1.88686
   A13        1.87587  -0.00013  -0.00176  -0.00984  -0.01160   1.86427
   A14        2.00224  -0.00057   0.00155   0.00394   0.00549   2.00773
   A15        1.89684  -0.00003   0.00019  -0.00083  -0.00061   1.89622
   A16        1.97088   0.00021   0.00110   0.01085   0.01187   1.98274
   A17        1.86339   0.00043  -0.00026   0.00909   0.00871   1.87210
   A18        1.84467   0.00013  -0.00032   0.00591   0.00544   1.85011
   A19        1.95818  -0.00022   0.00048   0.00395   0.00442   1.96260
   A20        1.87923   0.00050  -0.00048   0.00283   0.00234   1.88158
   A21        1.89020   0.00089  -0.00016   0.00696   0.00679   1.89699
   A22        1.87818   0.00000   0.00018   0.00034   0.00050   1.87868
   A23        1.97413  -0.00055   0.00021  -0.00400  -0.00382   1.97031
   A24        1.88011  -0.00060  -0.00028  -0.01051  -0.01081   1.86930
   A25        2.08050  -0.00205  -0.00028  -0.00989  -0.01034   2.07016
   A26        2.08966  -0.00128   0.00058  -0.00121  -0.00079   2.08887
   A27        2.11291   0.00334  -0.00029   0.01158   0.01112   2.12403
   A28        2.19290  -0.00201   0.00006  -0.00768  -0.00763   2.18527
   A29        2.04658   0.00198  -0.00019   0.00686   0.00667   2.05326
   A30        2.03356   0.00003   0.00007   0.00070   0.00078   2.03434
   A31        1.95444  -0.00150   0.00174   0.00034   0.00207   1.95651
   A32        1.91326   0.00072   0.00030   0.00772   0.00801   1.92126
   A33        1.93964   0.00035  -0.00074  -0.00248  -0.00322   1.93642
   A34        1.88511   0.00029  -0.00059  -0.00256  -0.00319   1.88192
   A35        1.89726   0.00020  -0.00038  -0.00363  -0.00401   1.89325
   A36        1.87148   0.00000  -0.00038   0.00054   0.00016   1.87164
   A37        1.90810   0.00024  -0.00053  -0.00079  -0.00132   1.90678
   A38        1.96153  -0.00172   0.00177  -0.00147   0.00029   1.96182
   A39        1.90026   0.00034  -0.00054  -0.00038  -0.00092   1.89933
   A40        1.88755   0.00036  -0.00047  -0.00281  -0.00328   1.88427
   A41        1.90509   0.00058   0.00019   0.00948   0.00966   1.91475
   A42        1.90067   0.00025  -0.00044  -0.00363  -0.00407   1.89659
    D1        0.17022  -0.00110   0.00022  -0.11038  -0.11024   0.05998
    D2       -3.02831   0.00031  -0.00183   0.05813   0.05629  -2.97203
    D3       -1.93035  -0.00149  -0.00005  -0.11705  -0.11712  -2.04747
    D4        1.15430  -0.00008  -0.00209   0.05145   0.04941   1.20371
    D5        2.28262  -0.00002   0.00117  -0.08978  -0.08863   2.19399
    D6       -0.91592   0.00139  -0.00088   0.07872   0.07790  -0.83801
    D7       -0.98484  -0.00049   0.00360  -0.00812  -0.00435  -0.98920
    D8        1.05363  -0.00011   0.00137  -0.01543  -0.01389   1.03974
[...]
      3          8           0       -3.709744    1.166076   -0.846164
      4          6           0       -1.602565    0.105927   -0.522166
      5          7           0       -0.930435   -0.653780    0.532302
      6          6           0        0.437195   -1.021413    0.205117
      7          6           0        1.422374    0.163987    0.338530
      8          8           0        1.036118    1.204668    0.867818
      9          7           0        2.706443    0.001862   -0.108553
     10          6           0        3.240973   -1.212934   -0.700602
     11          6           0        3.649704    1.104976    0.021050
     12          1           0       -4.887280   -0.597588    0.525870
     13          1           0       -3.459914   -0.699641    1.599900
     14          1           0       -3.566029   -1.781744    0.231285
     15          1           0       -1.503436   -0.456389   -1.463041
     16          1           0       -1.187209    1.107188   -0.702153
     17          1           0       -0.877444   -0.056494    1.356734
     18          1           0        0.768812   -1.820464    0.883132
     19          1           0        0.457414   -1.440677   -0.806445
     20          1           0        3.554767   -1.037753   -1.738184
     21          1           0        4.119150   -1.554290   -0.137867
     22          1           0        2.508265   -2.017274   -0.695996
     23          1           0        3.129735    1.951768    0.464924
     24          1           0        4.493781    0.817546    0.660440
     25          1           0        4.043614    1.388860   -0.962582
 ---------------------------------------------------------------------
 Rotational constants (GHZ):      2.7142442      0.4282923      0.4038366

 **********************************************************************

            Population analysis using the SCF density.

 **********************************************************************

 Orbital symmetries:
       Occupied  (A) (A) (A) (A) (A) (A) (A) (A) (A) (A) (A) (A)
                 (A) (A) (A) (A) (A) (A) (A) (A) (A) (A) (A) (A)
                 (A) (A) (A) (A) (A) (A) (A) (A) (A) (A) (A) (A)
                 (A) (A) (A) (A) (A) (A) (A)
       Virtual   (A) (A) (A) (A) (A) (A) (A) (A) (A) (A) (A) (A)
                 (A) (A) (A) (A) (A) (A) (A) (A) (A) (A) (A) (A)
                 (A) (A) (A) (A) (A) (A) (A) (A) (A) (A) (A) (A)
                 (A) (A) (A) (A) (A) (A) (A) (A) (A) (A) (A) (A)
                 (A) (A) (A) (A) (A) (A) (A) (A) (A) (A) (A) (A)
                 (A) (A) (A) (A) (A) (A) (A) (A) (A) (A) (A) (A)
                 (A) (A) (A) (A) (A) (A) (A) (A) (A) (A) (A) (A)
                 (A) (A) (A) (A) (A) (A) (A) (A) (A) (A) (A) (A)
                 (A) (A) (A) (A) (A) (A) (A) (A) (A) (A) (A) (A)
                 (A) (A) (A) (A) (A) (A) (A) (A) (A) (A) (A) (A)
                 (A) (A) (A) (A) (A) (A) (A) (A) (A) (A) (A) (A)
                 (A) (A) (A) (A) (A) (A) (A) (A) (A) (A) (A) (A)
                 (A) (A) (A) (A) (A) (A) (A) (A) (A) (A) (A) (A)
                 (A) (A) (A) (A) (A) (A) (A) (A) (A) (A) (A) (A)
                 (A) (A) (A) (A) (A) (A) (A) (A) (A) (A) (A) (A)
                 (A) (A) (A) (A) (A) (A) (A) (A) (A) (A) (A) (A)
 The electronic state is 1-A.
 Alpha  occ. eigenvalues --  -19.12706 -19.11682 -14.37503 -14.32589 -10.28864
 Alpha  occ. eigenvalues --  -10.26651 -10.23719 -10.22769 -10.21938 -10.20980
 Alpha  occ. eigenvalues --  -10.17839  -1.03740  -1.02763  -0.94089  -0.90999
 Alpha  occ. eigenvalues --   -0.75809  -0.73578  -0.72274  -0.69445  -0.64928
 Alpha  occ. eigenvalues --   -0.55245  -0.53565  -0.51610  -0.49005  -0.48140
 Alpha  occ. eigenvalues --   -0.47683  -0.45213  -0.45054  -0.42557  -0.42017
 Alpha  occ. eigenvalues --   -0.41382  -0.41269  -0.40583  -0.39348  -0.38788
 Alpha  occ. eigenvalues --   -0.38230  -0.36976  -0.35733  -0.33372  -0.26077
 Alpha  occ. eigenvalues --   -0.24757  -0.24109  -0.22817
 Alpha virt. eigenvalues --   -0.00539   0.02149   0.07603   0.09237   0.10834
 Alpha virt. eigenvalues --    0.12519   0.13415   0.13997   0.14300   0.14927
 Alpha virt. eigenvalues --    0.15367   0.16093   0.16330   0.17188   0.17686
 Alpha virt. eigenvalues --    0.18337   0.20788   0.20942   0.22663   0.23964
 Alpha virt. eigenvalues --    0.26202   0.27952   0.30656   0.34240   0.34817
 Alpha virt. eigenvalues --    0.39130   0.48035   0.48982   0.49578   0.53126
 Alpha virt. eigenvalues --    0.54168   0.54261   0.54686   0.56139   0.58775
 Alpha virt. eigenvalues --    0.59002   0.60562   0.62235   0.64747   0.66350
 Alpha virt. eigenvalues --    0.68758   0.69689   0.69950   0.71066   0.73345
 Alpha virt. eigenvalues --    0.74216   0.75985   0.76725   0.77406   0.79332
 Alpha virt. eigenvalues --    0.80642   0.82672   0.84109   0.84937   0.85388
 Alpha virt. eigenvalues --    0.85994   0.86542   0.87586   0.88058   0.89903
 Alpha virt. eigenvalues --    0.90330   0.91154   0.91974   0.93672   0.94790
 Alpha virt. eigenvalues --    0.95470   0.98249   0.99803   1.02563   1.03988
 Alpha virt. eigenvalues --    1.04880   1.09901   1.11541   1.16769   1.18422
 Alpha virt. eigenvalues --    1.24683   1.27838   1.29305   1.31716   1.32662
 Alpha virt. eigenvalues --    1.35407   1.37131   1.38886   1.40007   1.43760
 Alpha virt. eigenvalues --    1.51573   1.54907   1.58499   1.60957   1.64042
 Alpha virt. eigenvalues --    1.68692   1.69588   1.71935   1.72207   1.72804
 Alpha virt. eigenvalues --    1.73777   1.76446   1.78865   1.81419   1.82454
 Alpha virt. eigenvalues --    1.83008   1.86023   1.87793   1.88905   1.91425
 Alpha virt. eigenvalues --    1.93446   1.95018   1.95398   1.96609   1.99785
 Alpha virt. eigenvalues --    2.01179   2.01426   2.02313   2.02621   2.03011
 Alpha virt. eigenvalues --    2.04128   2.05869   2.07109   2.08780   2.10127
 Alpha virt. eigenvalues --    2.11342   2.12170   2.14190   2.14548   2.18468
 Alpha virt. eigenvalues --    2.20508   2.22879   2.26408   2.28607   2.30483
 Alpha virt. eigenvalues --    2.31691   2.35041   2.37580   2.39971   2.40383
 Alpha virt. eigenvalues --    2.41777   2.43635   2.50281   2.52101   2.53076
 Alpha virt. eigenvalues --    2.54968   2.56250   2.58850   2.60898   2.62985
 Alpha virt. eigenvalues --    2.64569   2.65928   2.66645   2.69319   2.71782
 Alpha virt. eigenvalues --    2.73710   2.76304   2.80639   2.81995   2.83076
 Alpha virt. eigenvalues --    2.86312   2.86795   2.88658   2.89152   2.90470
 Alpha virt. eigenvalues --    2.93342   2.94284   2.97586   3.04065   3.05361
 Alpha virt. eigenvalues --    3.10078   3.12574   3.16997   3.23317   3.26831
 Alpha virt. eigenvalues --    3.27221   3.31432   3.35742   3.37725   3.41362
 Alpha virt. eigenvalues --    3.42792   3.43075   3.44325   3.48259   3.49223
 Alpha virt. eigenvalues --    3.52225   3.97296   4.00812   4.10852   4.15390
 Alpha virt. eigenvalues --    4.23566   4.33866   4.48397   4.50981   4.51348
 Alpha virt. eigenvalues --    4.64925   4.67669
          Condensed to atoms (all electrons):
              1          2          3          4          5          6
     1  C    5.150391   0.328088  -0.079953  -0.131260   0.010435   0.000226
     2  C    0.328088   4.542650   0.577124   0.307140  -0.039288   0.002120
     3  O   -0.079953   0.577124   8.006839  -0.077449   0.002165  -0.000059
     4  C   -0.131260   0.307140  -0.077449   5.125496   0.248792  -0.044348
     5  N    0.010435  -0.039288   0.002165   0.248792   6.813121   0.344094
     6  C    0.000226   0.002120  -0.000059  -0.044348   0.344094   5.058125
     7  C    0.000004  -0.000170  -0.000004  -0.001355  -0.051473   0.283520
     8  O    0.000005   0.000012   0.000000  -0.000678  -0.014564  -0.090586
     9  N    0.000000   0.000000   0.000000   0.000061   0.003646  -0.100784
    10  C    0.000000   0.000000   0.000000  -0.000007   0.000267   0.000065
    11  C    0.000000   0.000000   0.000000  -0.000006  -0.000100   0.004689
    12  H    0.356977  -0.024070   0.004499   0.006450   0.000427   0.000005
    13  H    0.360696  -0.016281   0.001342  -0.000344   0.003169   0.000115
    14  H    0.362836  -0.023073   0.001785   0.005275   0.000268  -0.000079
    15  H    0.001452  -0.017721  -0.000311   0.359112  -0.040906  -0.009463
    16  H    0.006917  -0.036942   0.005050   0.355860  -0.042525  -0.002300
    17  H   -0.000362  -0.000569   0.000121  -0.042092   0.340852  -0.054975
    18  H   -0.000006   0.000003   0.000001   0.004898  -0.037017   0.372201
    19  H   -0.000004  -0.000050  -0.000001  -0.008223  -0.035988   0.367056
    20  H    0.000000   0.000000   0.000000   0.000002  -0.000002  -0.000173
    21  H    0.000000   0.000000   0.000000   0.000000  -0.000008  -0.000333
    22  H    0.000000   0.000000   0.000000   0.000000   0.000067   0.006422
    23  H    0.000000   0.000000   0.000000  -0.000001  -0.000006   0.001119
    24  H    0.000000   0.000000   0.000000   0.000000   0.000001  -0.000107
    25  H    0.000000   0.000000   0.000000   0.000000   0.000002  -0.000085
              7          8          9         10         11         12
     1  C    0.000004   0.000005   0.000000   0.000000   0.000000   0.356977
     2  C   -0.000170   0.000012   0.000000   0.000000   0.000000  -0.024070
     3  O   -0.000004   0.000000   0.000000   0.000000   0.000000   0.004499
     4  C   -0.001355  -0.000678   0.000061  -0.000007  -0.000006   0.006450
     5  N   -0.051473  -0.014564   0.003646   0.000267  -0.000100   0.000427
     6  C    0.283520  -0.090586  -0.100784   0.000065   0.004689   0.000005
     7  C    4.519573   0.573345   0.236240  -0.027455  -0.023480   0.000000
     8  O    0.573345   8.104368  -0.095151   0.002698  -0.011767   0.000000
     9  N    0.236240  -0.095151   7.039751   0.301600   0.286783   0.000000
    10  C   -0.027455   0.002698   0.301600   4.802077  -0.051711   0.000000
    11  C   -0.023480  -0.011767   0.286783  -0.051711   4.821884   0.000000
    12  H    0.000000   0.000000   0.000000   0.000000   0.000000   0.578949
    13  H   -0.000004  -0.000004   0.000000   0.000000   0.000000  -0.024207
    14  H    0.000007   0.000000   0.000000   0.000000   0.000000  -0.024909
    15  H   -0.001083   0.000179   0.000018  -0.000015  -0.000001  -0.000240
    16  H    0.004524   0.007480  -0.000428  -0.000003   0.000028  -0.000061
    17  H   -0.003532   0.021089   0.000916  -0.000051  -0.000010  -0.000073
    18  H   -0.042097   0.000100   0.003679  -0.001422  -0.000274  -0.000001
    19  H   -0.029541   0.001873   0.001819  -0.002778  -0.000200   0.000000
    20  H    0.000654  -0.000031  -0.045762   0.384434  -0.001801   0.000000
    21  H    0.001264  -0.000029  -0.044941   0.383874  -0.002462   0.000000
    22  H   -0.008925   0.000082  -0.028406   0.385640   0.004320   0.000000
    23  H   -0.002651   0.023772  -0.035996   0.004293   0.384196   0.000000
    24  H    0.000827   0.000618  -0.044213  -0.002302   0.386349   0.000000
    25  H    0.000931   0.000638  -0.044836  -0.001286   0.386405   0.000000
             13         14         15         16         17         18
     1  C    0.360696   0.362836   0.001452   0.006917  -0.000362  -0.000006
     2  C   -0.016281  -0.023073  -0.017721  -0.036942  -0.000569   0.000003
     3  O    0.001342   0.001785  -0.000311   0.005050   0.000121   0.000001
     4  C   -0.000344   0.005275   0.359112   0.355860  -0.042092   0.004898
     5  N    0.003169   0.000268  -0.040906  -0.042525   0.340852  -0.037017
     6  C    0.000115  -0.000079  -0.009463  -0.002300  -0.054975   0.372201
     7  C   -0.000004   0.000007  -0.001083   0.004524  -0.003532  -0.042097
     8  O   -0.000004   0.000000   0.000179   0.007480   0.021089   0.000100
     9  N    0.000000   0.000000   0.000018  -0.000428   0.000916   0.003679
    10  C    0.000000   0.000000  -0.000015  -0.000003  -0.000051  -0.001422
    11  C    0.000000   0.000000  -0.000001   0.000028  -0.000010  -0.000274
    12  H   -0.024207  -0.024909  -0.000240  -0.000061  -0.000073  -0.000001
    13  H    0.570414  -0.025819   0.000046  -0.000206   0.000750  -0.000017
    14  H   -0.025819   0.574338   0.000131   0.000068  -0.000016  -0.000011
    15  H    0.000046   0.000131   0.605222  -0.032956   0.006397   0.000399
    16  H   -0.000206   0.000068  -0.032956   0.607105  -0.005125  -0.000250
    17  H    0.000750  -0.000016   0.006397  -0.005125   0.474336  -0.000100
    18  H   -0.000017  -0.000011   0.000399  -0.000250  -0.000100   0.604727
    19  H    0.000001   0.000012   0.008542  -0.000510   0.007168  -0.032821
    20  H    0.000000   0.000000   0.000003   0.000002   0.000000   0.000008
    21  H    0.000000   0.000000   0.000000   0.000000   0.000003   0.000197
    22  H    0.000000   0.000000  -0.000005  -0.000003  -0.000001   0.000733
    23  H    0.000000   0.000000   0.000000   0.000002  -0.000022  -0.000032
    24  H    0.000000   0.000000   0.000000   0.000000   0.000000   0.000037
    25  H    0.000000   0.000000   0.000000   0.000001   0.000000  -0.000008
             19         20         21         22         23         24
     1  C   -0.000004   0.000000   0.000000   0.000000   0.000000   0.000000
     2  C   -0.000050   0.000000   0.000000   0.000000   0.000000   0.000000
     3  O   -0.000001   0.000000   0.000000   0.000000   0.000000   0.000000
     4  C   -0.008223   0.000002   0.000000   0.000000  -0.000001   0.000000
     5  N   -0.035988  -0.000002  -0.000008   0.000067  -0.000006   0.000001
     6  C    0.367056  -0.000173  -0.000333   0.006422   0.001119  -0.000107
     7  C   -0.029541   0.000654   0.001264  -0.008925  -0.002651   0.000827
     8  O    0.001873  -0.000031  -0.000029   0.000082   0.023772   0.000618
     9  N    0.001819  -0.045762  -0.044941  -0.028406  -0.035996  -0.044213
    10  C   -0.002778   0.384434   0.383874   0.385640   0.004293  -0.002302
    11  C   -0.000200  -0.001801  -0.002462   0.004320   0.384196   0.386349
    12  H    0.000000   0.000000   0.000000   0.000000   0.000000   0.000000
    13  H    0.000001   0.000000   0.000000   0.000000   0.000000   0.000000
    14  H    0.000012   0.000000   0.000000   0.000000   0.000000   0.000000
    15  H    0.008542   0.000003   0.000000  -0.000005   0.000000   0.000000
    16  H   -0.000510   0.000002   0.000000  -0.000003   0.000002   0.000000
    17  H    0.007168   0.000000   0.000003  -0.000001  -0.000022   0.000000
    18  H   -0.032821   0.000008   0.000197   0.000733  -0.000032   0.000037
    19  H    0.606480   0.000316   0.000093   0.000825  -0.000034  -0.000007
    20  H    0.000316   0.611795  -0.047140  -0.029624  -0.000061  -0.001747
    21  H    0.000093  -0.047140   0.609485  -0.027154  -0.000045   0.007190
    22  H    0.000825  -0.029624  -0.027154   0.568006  -0.000237   0.000022
    23  H   -0.000034  -0.000061  -0.000045  -0.000237   0.510552  -0.024770
    24  H   -0.000007  -0.001747   0.007190   0.000022  -0.024770   0.609481
    25  H    0.000014   0.006486  -0.002096  -0.000018  -0.023898  -0.044402
             25
     1  C    0.000000
     2  C    0.000000
     3  O    0.000000
     4  C    0.000000
     5  N    0.000002
     6  C   -0.000085
     7  C    0.000931
     8  O    0.000638
     9  N   -0.044836
    10  C   -0.001286
    11  C    0.386405
    12  H    0.000000
    13  H    0.000000
    14  H    0.000000
    15  H    0.000000
    16  H    0.000001
    17  H    0.000000
    18  H   -0.000008
    19  H    0.000014
    20  H    0.006486
    21  H   -0.002096
    22  H   -0.000018
    23  H   -0.023898
    24  H   -0.044402
    25  H    0.608491
 Mulliken atomic charges:
              1
     1  C   -0.366440
     2  C    0.401029
     3  O   -0.441150
     4  C   -0.107322
     5  N   -0.505429
     6  C   -0.136464
     7  C    0.570880
     8  O   -0.523447
     9  N   -0.433997
    10  C   -0.177919
    11  C   -0.182842
    12  H    0.126254
    13  H    0.130351
    14  H    0.129188
    15  H    0.121200
    16  H    0.134274
    17  H    0.255296
    18  H    0.127075
    19  H    0.115962
    20  H    0.122640
    21  H    0.122102
    22  H    0.128256
    23  H    0.163819
    24  H    0.113024
    25  H    0.113662
 Sum of Mulliken atomic charges =   0.00000
 Mulliken charges with hydrogens summed into heavy atoms:
              1
     1  C    0.019353
     2  C    0.401029
     3  O   -0.441150
     4  C    0.148152
     5  N   -0.250133
     6  C    0.106572
     7  C    0.570880
     8  O   -0.523447
     9  N   -0.433997
    10  C    0.195079
    11  C    0.207662
 Sum of Mulliken charges with hydrogens summed into heavy atoms =   0.00000
 Electronic spatial extent (au):  <R**2>=           2797.3225
 Charge=              0.0000 electrons
 Dipole moment (field-independent basis, Debye):
    X=              4.5652    Y=             -3.6849    Z=             -0.3701  Tot=              5.8785
 Quadrupole moment (field-independent basis, Debye-Ang):
   XX=            -65.0651   YY=            -69.8869   ZZ=            -66.2607
   XY=              4.0925   XZ=             -7.0174   YZ=              1.5507
 Traceless Quadrupole moment (field-independent basis, Debye-Ang):
   XX=              2.0058   YY=             -2.8160   ZZ=              0.8102
   XY=              4.0925   XZ=             -7.0174   YZ=              1.5507
 Octapole moment (field-independent basis, Debye-Ang**2):
  XXX=             77.9757  YYY=              0.5653  ZZZ=              1.7527  XYY=             14.3801
  XXY=            -27.5297  XXZ=             16.3238  XZZ=              0.8470  YZZ=             -2.0092
  YYZ=             -1.8560  XYZ=             -9.6776
 Hexadecapole moment (field-independent basis, Debye-Ang**3):
 XXXX=          -2992.8815 YYYY=           -411.4583 ZZZZ=           -212.3196 XXXY=            111.7862
 XXXZ=            -78.0733 YYYX=             -3.3397 YYYZ=              3.4176 ZZZX=              0.3154
 ZZZY=              1.0032 XXYY=           -583.5278 XXZZ=           -540.3171 YYZZ=           -109.5120
 XXYZ=             33.1063 YYXZ=             -5.9182 ZZXY=             -0.3121
 N-N= 6.267841273956D+02 E-N=-2.500279978269D+03  KE= 5.301629005330D+02
 1\1\GINC-C01\FOpt\RB3LYP\6-31G(d,p)\C7H14N2O2\TUU61186\15-Apr-2026\0\\
 # opt b3lyp/6-31g(d,p)\\QM dihedral opt\\0,1\C,0.1353217677,-0.2655370
 137,0.5798894812\C,0.0634859202,0.7301146088,-0.5593713786\O,-0.258403
 7072,0.4052099236,-1.6866140498\C,0.4641583051,2.1805456733,-0.2741049
 642\N,0.3358205395,2.5561773064,1.1341728262\C,0.948806279,3.834390652
 4,1.45516345\C,0.0981974665,5.0388920889,0.9869865218\O,-1.0473740278,
 4.8409015217,0.5859590723\N,0.6400272532,6.2938786069,1.0671690248\C,1
 .9669078977,6.6034776884,1.5726508832\C,-0.1529310436,7.4398795152,0.6
 413804132\H,-0.056634255,-1.2678715613,0.194785499\H,-0.6002860686,-0.
 0160716139,1.3518368521\H,1.1128833319,-0.2189581777,1.0704092623\H,1.
 5276852099,2.2481934141,-0.5490650099\H,-0.0888135697,2.8236740808,-0.
 9727094585\H,-0.658176507,2.6557003974,1.3374285226\H,1.0790908129,3.9
 095624885,2.5439849165\H,1.9520700638,3.8644490351,1.016978166\H,2.590
 0181866,7.052656448,0.787983594\H,1.8994821298,7.3219129715,2.39950781
 41\H,2.4722767844,5.7141705975,1.943568193\H,-1.1127740955,7.077973428
 ,0.2778228248\H,-0.3151473525,8.1293655045,1.4793525192\H,0.362308679,
 7.9853324155,-0.1588049753\\Version=EM64L-G09RevC.01\State=1-A\HF=-535
 .1408674\RMSD=9.844e-09\RMSF=5.720e-06\Dipole=1.2986957,1.435289,1.265
 804\Quadrupole=0.6374671,3.5958957,-4.2333628,1.9231295,-1.5055316,-4.
 4381808\PG=C01 [X(C7H14N2O2)]\\@


 SEE YOU NOW,
 YOUR BAIT OF FALSEHOOD TAKES THIS CARP OF TRUTH.
 AND THUS DO WE OF WISDOM AND OF REACH...
 BY INDIRECTIONS FIND DIRECTIONS OUT.    -- HAMLET, II, 1
 Job cpu time:  0 days  0 hours 23 minutes 40.8 seconds.
 File lengths (MBytes):  RWF=     34 Int=      0 D2E=      0 Chk=      5 Scr=      1
 Normal termination of Gaussian 09 at Wed Apr 15 16:37:44 2026.
