 Entering Gaussian System, Link 0=/data/opt/apps/g09-C01/g09
 Initial command:
 /data/opt/apps/g09-C01/l1.exe /tmp/g09-tuu61186-557491cae64843b9x/Gau-557551.inp -scrdir=/tmp/g09-tuu61186-557491cae64843b9x/
 Entering Link 1 = /data/opt/apps/g09-C01/l1.exe PID=    557572.
  
 Copyright (c) 1988,1990,1992,1993,1995,1998,2003,2009,2011,
            Gaussian, Inc.  All Rights Reserved.
  
 This is part of the Gaussian(R) 09 program.  It is based on
 the Gaussian(R) 03 system (copyright 2003, Gaussian, Inc.),
 the Gaussian(R) 98 system (copyright 1998, Gaussian, Inc.),
 the Gaussian(R) 94 system (copyright 1995, Gaussian, Inc.),
 the Gaussian 92(TM) system (copyright 1992, Gaussian, Inc.),
 the Gaussian 90(TM) system (copyright 1990, Gaussian, Inc.),
 the Gaussian 88(TM) system (copyright 1988, Gaussian, Inc.),
 the Gaussian 86(TM) system (copyright 1986, Carnegie Mellon
 University), and the Gaussian 82(TM) system (copyright 1983,
 Carnegie Mellon University). Gaussian is a federally registered
 trademark of Gaussian, Inc.
  
 This software contains proprietary and confidential information,
 including trade secrets, belonging to Gaussian, Inc.
  
 This software is provided under written license and may be
 used, copied, transmitted, or stored only in accord with that
 written license.
  
 The following legend is applicable only to US Government
 contracts under FAR:
  
                    RESTRICTED RIGHTS LEGEND
  
 Use, reproduction and disclosure by the US Government is
 subject to restrictions as set forth in subparagraphs (a)
 and (c) of the Commercial Computer Software - Restricted
 Rights clause in FAR 52.227-19.
  
 Gaussian, Inc.
 340 Quinnipiac St., Bldg. 40, Wallingford CT 06492
  
  
 ---------------------------------------------------------------
 Warning -- This program may not be used in any manner that
 competes with the business of Gaussian, Inc. or will provide
 assistance to any competitor of Gaussian, Inc.  The licensee
 of this program is prohibited from giving any competitor of
 Gaussian, Inc. access to this program.  By using this program,
 the user acknowledges that Gaussian, Inc. is engaged in the
 business of creating and licensing software in the field of
 computational chemistry and represents and warrants to the
 licensee that it is not a competitor of Gaussian, Inc. and that
 it will not use this program in any manner prohibited above.
 ---------------------------------------------------------------
  

 Cite this work as:
 Gaussian 09, Revision C.01,
 M. J. Frisch, G. W. Trucks, H. B. Schlegel, G. E. Scuseria, 
 M. A. Robb, J. R. Cheeseman, G. Scalmani, V. Barone, B. Mennucci, 
 G. A. Petersson, H. Nakatsuji, M. Caricato, X. Li, H. P. Hratchian, 
 A. F. Izmaylov, J. Bloino, G. Zheng, J. L. Sonnenberg, M. Hada, 
 M. Ehara, K. Toyota, R. Fukuda, J. Hasegawa, M. Ishida, T. Nakajima, 
 Y. Honda, O. Kitao, H. Nakai, T. Vreven, J. A. Montgomery, Jr., 
 J. E. Peralta, F. Ogliaro, M. Bearpark, J. J. Heyd, E. Brothers, 
 K. N. Kudin, V. N. Staroverov, T. Keith, R. Kobayashi, J. Normand, 
 K. Raghavachari, A. Rendell, J. C. Burant, S. S. Iyengar, J. Tomasi, 
 M. Cossi, N. Rega, J. M. Millam, M. Klene, J. E. Knox, J. B. Cross, 
 V. Bakken, C. Adamo, J. Jaramillo, R. Gomperts, R. E. Stratmann, 
 O. Yazyev, A. J. Austin, R. Cammi, C. Pomelli, J. W. Ochterski, 
 R. L. Martin, K. Morokuma, V. G. Zakrzewski, G. A. Voth, 
 P. Salvador, J. J. Dannenberg, S. Dapprich, A. D. Daniels, 
 O. Farkas, J. B. Foresman, J. V. Ortiz, J. Cioslowski, 
 and D. J. Fox, Gaussian, Inc., Wallingford CT, 2010.
 
 ******************************************
 Gaussian 09:  EM64L-G09RevC.01 23-Sep-2011
                 9-Apr-2026 
 ******************************************
 %nprocshared=8
 Will use up to    8 processors via shared memory.
 %mem=14GB
 ----------------------
 # opt b3lyp/6-31g(d,p)
 ----------------------
 1/14=-1,18=20,19=15,26=3,38=1/1,3;
 2/9=110,12=2,17=6,18=5,40=1/2;
 3/5=1,6=6,7=101,11=2,16=1,25=1,30=1,71=1,74=-5/1,2,3;
 4//1;
 5/5=2,38=5/2;
 6/7=2,8=2,9=2,10=2,28=1/1;
 7//1,2,3,16;
 1/14=-1,18=20,19=15/3(2);
 2/9=110/2;
 99//99;
 2/9=110/2;
 3/5=1,6=6,7=101,11=2,16=1,25=1,30=1,71=1,74=-5/1,2,3;
 4/5=5,16=3/1;
 5/5=2,38=5/2;
 7//1,2,3,16;
 1/14=-1,18=20,19=15/3(-5);
 2/9=110/2;
 6/7=2,8=2,9=2,10=2,19=2,28=1/1;
 99/9=1/99;
 ---------------
 QM dihedral opt
 ---------------
 Charge =  0 Multiplicity = 1
 Symbolic Z-Matrix:
 C                     1.5107   -3.64557   2.09481 
 C                     0.03552  -3.46879   1.86047 
 O                    -0.6827   -3.22661   2.82931 
 N                    -0.48306  -3.65692   0.58269 
 C                     0.34408  -3.7372   -0.67285 
 C                     1.33193  -4.94569  -0.73872 
 O                     2.32141  -4.80743  -1.78023 
 C                     3.37525  -3.90909  -1.4285 
 C                     4.57597  -4.03682  -2.34579 
 C                     5.31061  -2.89326  -2.70837 
 C                     6.49886  -3.00402  -3.43678 
 C                     6.97482  -4.2592   -3.80586 
 C                     6.25037  -5.40217  -3.46593 
 C                     5.06024  -5.29265  -2.74177 
 C                     0.42917  -6.13286  -1.10208 
 C                    -0.75603  -5.53892  -1.86235 
 C                    -0.47148  -4.04016  -1.95157 
 C                    -1.91915  -3.31666   0.46511 
 C                    -2.22039  -1.8574    0.04851 
 O                    -1.31751  -1.01567  -0.0516 
 N                    -3.55293  -1.53277  -0.22603 
 C                    -4.67694  -2.45069  -0.16324 
 C                    -3.85019  -0.15683  -0.57534 
 H                     1.78126  -3.17667   3.04589 
 H                     2.10594  -3.16734   1.31539 
 H                     1.73869  -4.71144   2.18355 
 H                     0.85499  -2.77703  -0.7802 
 H                     1.85614  -5.18384   0.18334 
 H                     2.9917   -2.88408  -1.46837 
 H                     3.72595  -4.1168   -0.41076 
 H                     4.96754  -1.906    -2.40921 
 H                     7.05911  -2.11023  -3.69877 
 H                     7.90708  -4.34458  -4.35534 
 H                     6.62283  -6.37949  -3.75653 
 H                     4.51938  -6.19433  -2.46913 
 H                     0.94826  -6.887    -1.69757 
 H                     0.06148  -6.61125  -0.18507 
 H                    -0.87738  -5.98847  -2.85095 
 H                    -1.67748  -5.73621  -1.30631 
 H                    -1.37702  -3.44461  -2.08107 
 H                     0.14702  -3.84703  -2.83825 
 H                    -2.38093  -3.99696  -0.2512 
 H                    -2.42759  -3.48436   1.41744 
 H                    -5.39138  -2.0812    0.58306 
 H                    -5.16778  -2.461    -1.14752 
 H                    -4.3974   -3.46686   0.09425 
 H                    -3.57836   0.49497   0.26107 
 H                    -3.26684   0.13082  -1.45605 
 H                    -4.91605  -0.03269  -0.79566 
 

 GradGradGradGradGradGradGradGradGradGradGradGradGradGradGradGradGradGrad
 Berny optimization.
 Initialization pass.
                           ----------------------------
                           !    Initial Parameters    !
                           ! (Angstroms and Degrees)  !
 --------------------------                            --------------------------
 ! Name  Definition              Value          Derivative Info.                !
 --------------------------------------------------------------------------------
 ! R1    R(1,2)                  1.5041         estimate D2E/DX2                !
 ! R2    R(1,24)                 1.0944         estimate D2E/DX2                !
 ! R3    R(1,25)                 1.0911         estimate D2E/DX2                !
 ! R4    R(1,26)                 1.0936         estimate D2E/DX2                !
 ! R5    R(2,3)                  1.2301         estimate D2E/DX2                !
 ! R6    R(2,4)                  1.3918         estimate D2E/DX2                !
 ! R7    R(4,5)                  1.5057         estimate D2E/DX2                !
 ! R8    R(4,18)                 1.4805         estimate D2E/DX2                !
 ! R9    R(5,6)                  1.5623         estimate D2E/DX2                !
 ! R10   R(5,17)                 1.5466         estimate D2E/DX2                !
 ! R11   R(5,27)                 1.0929         estimate D2E/DX2                !
 ! R12   R(6,7)                  1.4432         estimate D2E/DX2                !
 ! R13   R(6,15)                 1.5351         estimate D2E/DX2                !
 ! R14   R(6,28)                 1.0871         estimate D2E/DX2                !
 ! R15   R(7,8)                  1.4287         estimate D2E/DX2                !
 ! R16   R(8,9)                  1.5164         estimate D2E/DX2                !
 ! R17   R(8,29)                 1.0951         estimate D2E/DX2                !
 ! R18   R(8,30)                 1.0963         estimate D2E/DX2                !
 ! R19   R(9,10)                 1.4067         estimate D2E/DX2                !
 ! R20   R(9,14)                 1.403          estimate D2E/DX2                !
 ! R21   R(10,11)                1.3981         estimate D2E/DX2                !
 ! R22   R(10,31)                1.0871         estimate D2E/DX2                !
 ! R23   R(11,12)                1.3922         estimate D2E/DX2                !
 ! R24   R(11,32)                1.0869         estimate D2E/DX2                !
 ! R25   R(12,13)                1.3953         estimate D2E/DX2                !
 ! R26   R(12,33)                1.0855         estimate D2E/DX2                !
 ! R27   R(13,14)                1.3974         estimate D2E/DX2                !
 ! R28   R(13,34)                1.0855         estimate D2E/DX2                !
 ! R29   R(14,35)                1.0862         estimate D2E/DX2                !
 ! R30   R(15,16)                1.5282         estimate D2E/DX2                !
 ! R31   R(15,36)                1.0921         estimate D2E/DX2                !
 ! R32   R(15,37)                1.0977         estimate D2E/DX2                !
 ! R33   R(16,17)                1.5281         estimate D2E/DX2                !
 ! R34   R(16,38)                1.0928         estimate D2E/DX2                !
 ! R35   R(16,39)                1.0942         estimate D2E/DX2                !
 ! R36   R(17,40)                1.0915         estimate D2E/DX2                !
 ! R37   R(17,41)                1.0982         estimate D2E/DX2                !
 ! R38   R(18,19)                1.5472         estimate D2E/DX2                !
 ! R39   R(18,42)                1.0905         estimate D2E/DX2                !
 ! R40   R(18,43)                1.0925         estimate D2E/DX2                !
 ! R41   R(19,20)                1.2384         estimate D2E/DX2                !
 ! R42   R(19,21)                1.3987         estimate D2E/DX2                !
 ! R43   R(21,22)                1.4526         estimate D2E/DX2                !
 ! R44   R(21,23)                1.4504         estimate D2E/DX2                !
 ! R45   R(22,44)                1.0972         estimate D2E/DX2                !
 ! R46   R(22,45)                1.0999         estimate D2E/DX2                !
 ! R47   R(22,46)                1.0849         estimate D2E/DX2                !
 ! R48   R(23,47)                1.0947         estimate D2E/DX2                !
 ! R49   R(23,48)                1.0948         estimate D2E/DX2                !
 ! R50   R(23,49)                1.0954         estimate D2E/DX2                !
 ! A1    A(2,1,24)             109.1184         estimate D2E/DX2                !
 ! A2    A(2,1,25)             111.8538         estimate D2E/DX2                !
 ! A3    A(2,1,26)             109.3699         estimate D2E/DX2                !
 ! A4    A(24,1,25)            107.3461         estimate D2E/DX2                !
 ! A5    A(24,1,26)            107.1903         estimate D2E/DX2                !
 ! A6    A(25,1,26)            111.8034         estimate D2E/DX2                !
 ! A7    A(1,2,3)              118.234          estimate D2E/DX2                !
 ! A8    A(1,2,4)              119.511          estimate D2E/DX2                !
 ! A9    A(3,2,4)              122.1516         estimate D2E/DX2                !
 ! A10   A(2,4,5)              124.6178         estimate D2E/DX2                !
 ! A11   A(2,4,18)             113.7826         estimate D2E/DX2                !
 ! A12   A(5,4,18)             118.6134         estimate D2E/DX2                !
 ! A13   A(4,5,6)              115.0732         estimate D2E/DX2                !
 ! A14   A(4,5,17)             114.2174         estimate D2E/DX2                !
 ! A15   A(4,5,27)             106.9701         estimate D2E/DX2                !
 ! A16   A(6,5,17)              98.4558         estimate D2E/DX2                !
 ! A17   A(6,5,27)             112.3251         estimate D2E/DX2                !
 ! A18   A(17,5,27)            109.7178         estimate D2E/DX2                !
 ! A19   A(5,6,7)              112.9447         estimate D2E/DX2                !
 ! A20   A(5,6,15)             103.6719         estimate D2E/DX2                !
 ! A21   A(5,6,28)             116.0163         estimate D2E/DX2                !
 ! A22   A(7,6,15)             107.8464         estimate D2E/DX2                !
 ! A23   A(7,6,28)             107.607          estimate D2E/DX2                !
 ! A24   A(15,6,28)            108.3576         estimate D2E/DX2                !
 ! A25   A(6,7,8)              112.8472         estimate D2E/DX2                !
 ! A26   A(7,8,9)              112.468          estimate D2E/DX2                !
 ! A27   A(7,8,29)             108.7358         estimate D2E/DX2                !
 ! A28   A(7,8,30)             110.2036         estimate D2E/DX2                !
 ! A29   A(9,8,29)             109.5199         estimate D2E/DX2                !
 ! A30   A(9,8,30)             106.9957         estimate D2E/DX2                !
 ! A31   A(29,8,30)            108.8539         estimate D2E/DX2                !
 ! A32   A(8,9,10)             120.0633         estimate D2E/DX2                !
 ! A33   A(8,9,14)             121.2944         estimate D2E/DX2                !
 ! A34   A(10,9,14)            118.3361         estimate D2E/DX2                !
 ! A35   A(9,10,11)            120.9118         estimate D2E/DX2                !
 ! A36   A(9,10,31)            120.1659         estimate D2E/DX2                !
 ! A37   A(11,10,31)           118.9145         estimate D2E/DX2                !
 ! A38   A(10,11,12)           120.0061         estimate D2E/DX2                !
 ! A39   A(10,11,32)           119.9012         estimate D2E/DX2                !
 ! A40   A(12,11,32)           120.0837         estimate D2E/DX2                !
 ! A41   A(11,12,13)           119.7658         estimate D2E/DX2                !
 ! A42   A(11,12,33)           119.9152         estimate D2E/DX2                !
 ! A43   A(13,12,33)           120.3189         estimate D2E/DX2                !
 ! A44   A(12,13,14)           120.2815         estimate D2E/DX2                !
 ! A45   A(12,13,34)           119.6141         estimate D2E/DX2                !
 ! A46   A(14,13,34)           120.1            estimate D2E/DX2                !
 ! A47   A(9,14,13)            120.6886         estimate D2E/DX2                !
 ! A48   A(9,14,35)            120.021          estimate D2E/DX2                !
 ! A49   A(13,14,35)           119.2797         estimate D2E/DX2                !
 ! A50   A(6,15,16)            105.8597         estimate D2E/DX2                !
 ! A51   A(6,15,36)            112.555          estimate D2E/DX2                !
 ! A52   A(6,15,37)            109.651          estimate D2E/DX2                !
 ! A53   A(16,15,36)           111.4519         estimate D2E/DX2                !
 ! A54   A(16,15,37)           108.9772         estimate D2E/DX2                !
 ! A55   A(36,15,37)           108.2863         estimate D2E/DX2                !
 ! A56   A(15,16,17)           105.4151         estimate D2E/DX2                !
 ! A57   A(15,16,38)           112.1047         estimate D2E/DX2                !
 ! A58   A(15,16,39)           109.2828         estimate D2E/DX2                !
 ! A59   A(17,16,38)           111.798          estimate D2E/DX2                !
 ! A60   A(17,16,39)           111.305          estimate D2E/DX2                !
 ! A61   A(38,16,39)           106.9807         estimate D2E/DX2                !
 ! A62   A(5,17,16)            104.0068         estimate D2E/DX2                !
 ! A63   A(5,17,40)            115.3835         estimate D2E/DX2                !
 ! A64   A(5,17,41)            109.6399         estimate D2E/DX2                !
 ! A65   A(16,17,40)           112.8032         estimate D2E/DX2                !
 ! A66   A(16,17,41)           108.9347         estimate D2E/DX2                !
 ! A67   A(40,17,41)           105.991          estimate D2E/DX2                !
 ! A68   A(4,18,19)            115.2779         estimate D2E/DX2                !
 ! A69   A(4,18,42)            108.6355         estimate D2E/DX2                !
 ! A70   A(4,18,43)            110.2988         estimate D2E/DX2                !
 ! A71   A(19,18,42)           109.213          estimate D2E/DX2                !
 ! A72   A(19,18,43)           106.7911         estimate D2E/DX2                !
 ! A73   A(42,18,43)           106.2457         estimate D2E/DX2                !
 ! A74   A(18,19,20)           121.3906         estimate D2E/DX2                !
 ! A75   A(18,19,21)           117.2095         estimate D2E/DX2                !
 ! A76   A(20,19,21)           121.3954         estimate D2E/DX2                !
 ! A77   A(19,21,22)           125.595          estimate D2E/DX2                !
 ! A78   A(19,21,23)           117.562          estimate D2E/DX2                !
 ! A79   A(22,21,23)           116.8282         estimate D2E/DX2                !
 ! A80   A(21,22,44)           108.6904         estimate D2E/DX2                !
 ! A81   A(21,22,45)           108.2133         estimate D2E/DX2                !
 ! A82   A(21,22,46)           113.7514         estimate D2E/DX2                !
 ! A83   A(44,22,45)           108.7383         estimate D2E/DX2                !
 ! A84   A(44,22,46)           108.7689         estimate D2E/DX2                !
 ! A85   A(45,22,46)           108.5773         estimate D2E/DX2                !
 ! A86   A(21,23,47)           109.266          estimate D2E/DX2                !
 ! A87   A(21,23,48)           109.4984         estimate D2E/DX2                !
 ! A88   A(21,23,49)           110.8157         estimate D2E/DX2                !
 ! A89   A(47,23,48)           109.0191         estimate D2E/DX2                !
 ! A90   A(47,23,49)           109.1358         estimate D2E/DX2                !
 ! A91   A(48,23,49)           109.0785         estimate D2E/DX2                !
 ! D1    D(24,1,2,3)           -20.5536         estimate D2E/DX2                !
 ! D2    D(24,1,2,4)           163.0626         estimate D2E/DX2                !
 ! D3    D(25,1,2,3)          -139.1739         estimate D2E/DX2                !
 ! D4    D(25,1,2,4)            44.4423         estimate D2E/DX2                !
 ! D5    D(26,1,2,3)            96.4105         estimate D2E/DX2                !
 ! D6    D(26,1,2,4)           -79.9733         estimate D2E/DX2                !
 ! D7    D(1,2,4,5)            -13.9785         estimate D2E/DX2                !
 ! D8    D(1,2,4,18)          -174.0528         estimate D2E/DX2                !
 ! D9    D(3,2,4,5)            169.7847         estimate D2E/DX2                !
 ! D10   D(3,2,4,18)             9.7105         estimate D2E/DX2                !
 ! D11   D(2,4,5,6)             63.4588         estimate D2E/DX2                !
 ! D12   D(2,4,5,17)           176.3168         estimate D2E/DX2                !
 ! D13   D(2,4,5,27)           -62.0794         estimate D2E/DX2                !
 ! D14   D(18,4,5,6)          -137.3498         estimate D2E/DX2                !
 ! D15   D(18,4,5,17)          -24.4918         estimate D2E/DX2                !
 ! D16   D(18,4,5,27)           97.1119         estimate D2E/DX2                !
 ! D17   D(2,4,18,19)           91.3897         estimate D2E/DX2                !
 ! D18   D(2,4,18,42)         -145.701          estimate D2E/DX2                !
 ! D19   D(2,4,18,43)          -29.6277         estimate D2E/DX2                !
 ! D20   D(5,4,18,19)          -69.9786         estimate D2E/DX2                !
 ! D21   D(5,4,18,42)           52.9308         estimate D2E/DX2                !
 ! D22   D(5,4,18,43)          169.0041         estimate D2E/DX2                !
 ! D23   D(4,5,6,7)           -165.6547         estimate D2E/DX2                !
 ! D24   D(4,5,6,15)            77.8913         estimate D2E/DX2                !
 ! D25   D(4,5,6,28)           -40.7554         estimate D2E/DX2                !
 ! D26   D(17,5,6,7)            72.5149         estimate D2E/DX2                !
 ! D27   D(17,5,6,15)          -43.9391         estimate D2E/DX2                !
 ! D28   D(17,5,6,28)         -162.5858         estimate D2E/DX2                !
 ! D29   D(27,5,6,7)           -42.9388         estimate D2E/DX2                !
 ! D30   D(27,5,6,15)         -159.3928         estimate D2E/DX2                !
 ! D31   D(27,5,6,28)           81.9604         estimate D2E/DX2                !
 ! D32   D(4,5,17,16)          -77.0721         estimate D2E/DX2                !
 ! D33   D(4,5,17,40)           47.0175         estimate D2E/DX2                !
 ! D34   D(4,5,17,41)          166.5613         estimate D2E/DX2                !
 ! D35   D(6,5,17,16)           45.3833         estimate D2E/DX2                !
 ! D36   D(6,5,17,40)          169.4728         estimate D2E/DX2                !
 ! D37   D(6,5,17,41)          -70.9834         estimate D2E/DX2                !
 ! D38   D(27,5,17,16)         162.8502         estimate D2E/DX2                !
 ! D39   D(27,5,17,40)         -73.0602         estimate D2E/DX2                !
 ! D40   D(27,5,17,41)          46.4835         estimate D2E/DX2                !
 ! D41   D(5,6,7,8)             77.6349         estimate D2E/DX2                !
 ! D42   D(15,6,7,8)          -168.4151         estimate D2E/DX2                !
 ! D43   D(28,6,7,8)           -51.7161         estimate D2E/DX2                !
 ! D44   D(5,6,15,16)           26.7496         estimate D2E/DX2                !
 ! D45   D(5,6,15,36)          148.7334         estimate D2E/DX2                !
 ! D46   D(5,6,15,37)          -90.6643         estimate D2E/DX2                !
 ! D47   D(7,6,15,16)          -93.2377         estimate D2E/DX2                !
 ! D48   D(7,6,15,36)           28.746          estimate D2E/DX2                !
 ! D49   D(7,6,15,37)          149.3483         estimate D2E/DX2                !
 ! D50   D(28,6,15,16)         150.5529         estimate D2E/DX2                !
 ! D51   D(28,6,15,36)         -87.4634         estimate D2E/DX2                !
 ! D52   D(28,6,15,37)          33.139          estimate D2E/DX2                !
 ! D53   D(6,7,8,9)            165.0986         estimate D2E/DX2                !
 ! D54   D(6,7,8,29)           -73.4293         estimate D2E/DX2                !
 ! D55   D(6,7,8,30)            45.808          estimate D2E/DX2                !
 ! D56   D(7,8,9,10)           143.3226         estimate D2E/DX2                !
 ! D57   D(7,8,9,14)           -43.1389         estimate D2E/DX2                !
 ! D58   D(29,8,9,10)           22.2987         estimate D2E/DX2                !
 ! D59   D(29,8,9,14)         -164.1628         estimate D2E/DX2                !
 ! D60   D(30,8,9,10)          -95.5329         estimate D2E/DX2                !
 ! D61   D(30,8,9,14)           78.0056         estimate D2E/DX2                !
 ! D62   D(8,9,10,11)          173.2742         estimate D2E/DX2                !
 ! D63   D(8,9,10,31)           -5.7016         estimate D2E/DX2                !
 ! D64   D(14,9,10,11)          -0.4535         estimate D2E/DX2                !
 ! D65   D(14,9,10,31)        -179.4294         estimate D2E/DX2                !
 ! D66   D(8,9,14,13)         -172.9791         estimate D2E/DX2                !
 ! D67   D(8,9,14,35)            5.8163         estimate D2E/DX2                !
 ! D68   D(10,9,14,13)           0.6679         estimate D2E/DX2                !
 ! D69   D(10,9,14,35)         179.4632         estimate D2E/DX2                !
 ! D70   D(9,10,11,12)          -0.4203         estimate D2E/DX2                !
 ! D71   D(9,10,11,32)        -179.3279         estimate D2E/DX2                !
 ! D72   D(31,10,11,12)        178.5682         estimate D2E/DX2                !
 ! D73   D(31,10,11,32)         -0.3394         estimate D2E/DX2                !
 ! D74   D(10,11,12,13)          1.0852         estimate D2E/DX2                !
 ! D75   D(10,11,12,33)       -178.8612         estimate D2E/DX2                !
 ! D76   D(32,11,12,13)        179.9908         estimate D2E/DX2                !
 ! D77   D(32,11,12,33)          0.0444         estimate D2E/DX2                !
 ! D78   D(11,12,13,14)         -0.8736         estimate D2E/DX2                !
 ! D79   D(11,12,13,34)        179.8883         estimate D2E/DX2                !
 ! D80   D(33,12,13,14)        179.0726         estimate D2E/DX2                !
 ! D81   D(33,12,13,34)         -0.1656         estimate D2E/DX2                !
 ! D82   D(12,13,14,9)          -0.0123         estimate D2E/DX2                !
 ! D83   D(12,13,14,35)       -178.8165         estimate D2E/DX2                !
 ! D84   D(34,13,14,9)         179.2221         estimate D2E/DX2                !
 ! D85   D(34,13,14,35)          0.4179         estimate D2E/DX2                !
 ! D86   D(6,15,16,17)           1.8686         estimate D2E/DX2                !
 ! D87   D(6,15,16,38)         123.7213         estimate D2E/DX2                !
 ! D88   D(6,15,16,39)        -117.8511         estimate D2E/DX2                !
 ! D89   D(36,15,16,17)       -120.8193         estimate D2E/DX2                !
 ! D90   D(36,15,16,38)          1.0335         estimate D2E/DX2                !
 ! D91   D(36,15,16,39)        119.4611         estimate D2E/DX2                !
 ! D92   D(37,15,16,17)        119.7335         estimate D2E/DX2                !
 ! D93   D(37,15,16,38)       -118.4138         estimate D2E/DX2                !
 ! D94   D(37,15,16,39)          0.0138         estimate D2E/DX2                !
 ! D95   D(15,16,17,5)         -30.1925         estimate D2E/DX2                !
 ! D96   D(15,16,17,40)       -155.9353         estimate D2E/DX2                !
 ! D97   D(15,16,17,41)         86.6668         estimate D2E/DX2                !
 ! D98   D(38,16,17,5)        -152.2434         estimate D2E/DX2                !
 ! D99   D(38,16,17,40)         82.0138         estimate D2E/DX2                !
 ! D100  D(38,16,17,41)        -35.3841         estimate D2E/DX2                !
 ! D101  D(39,16,17,5)          88.1806         estimate D2E/DX2                !
 ! D102  D(39,16,17,40)        -37.5622         estimate D2E/DX2                !
 ! D103  D(39,16,17,41)       -154.9601         estimate D2E/DX2                !
 ! D104  D(4,18,19,20)          -6.4849         estimate D2E/DX2                !
 ! D105  D(4,18,19,21)         172.7597         estimate D2E/DX2                !
 ! D106  D(42,18,19,20)       -129.0865         estimate D2E/DX2                !
 ! D107  D(42,18,19,21)         50.1581         estimate D2E/DX2                !
 ! D108  D(43,18,19,20)        116.4189         estimate D2E/DX2                !
 ! D109  D(43,18,19,21)        -64.3365         estimate D2E/DX2                !
 ! D110  D(18,19,21,22)         -0.4891         estimate D2E/DX2                !
 ! D111  D(18,19,21,23)        178.0583         estimate D2E/DX2                !
 ! D112  D(20,19,21,22)        178.7554         estimate D2E/DX2                !
 ! D113  D(20,19,21,23)         -2.6972         estimate D2E/DX2                !
 ! D114  D(19,21,22,44)        119.4279         estimate D2E/DX2                !
 ! D115  D(19,21,22,45)       -122.6462         estimate D2E/DX2                !
 ! D116  D(19,21,22,46)         -1.9016         estimate D2E/DX2                !
 ! D117  D(23,21,22,44)        -59.129          estimate D2E/DX2                !
 ! D118  D(23,21,22,45)         58.7969         estimate D2E/DX2                !
 ! D119  D(23,21,22,46)        179.5415         estimate D2E/DX2                !
 ! D120  D(19,21,23,47)        -61.3671         estimate D2E/DX2                !
 ! D121  D(19,21,23,48)         57.9724         estimate D2E/DX2                !
 ! D122  D(19,21,23,49)        178.3421         estimate D2E/DX2                !
 ! D123  D(22,21,23,47)        117.3092         estimate D2E/DX2                !
 ! D124  D(22,21,23,48)       -123.3513         estimate D2E/DX2                !
 ! D125  D(22,21,23,49)         -2.9816         estimate D2E/DX2                !
 --------------------------------------------------------------------------------
 Trust Radius=3.00D-01 FncErr=1.00D-07 GrdErr=1.00D-06
 Number of steps in this run=    276 maximum allowed number of steps=    294.
 GradGradGradGradGradGradGradGradGradGradGradGradGradGradGradGradGradGrad

                          Input orientation:                          
 ---------------------------------------------------------------------
 Center     Atomic      Atomic             Coordinates (Angstroms)
 Number     Number       Type             X           Y           Z
 ---------------------------------------------------------------------
      1          6           0        1.510700   -3.645570    2.094810
      2          6           0        0.035520   -3.468790    1.860470
      3          8           0       -0.682700   -3.226610    2.829310
      4          7           0       -0.483060   -3.656920    0.582690
      5          6           0        0.344080   -3.737200   -0.672850
      6          6           0        1.331930   -4.945690   -0.738720
      7          8           0        2.321410   -4.807430   -1.780230
      8          6           0        3.375250   -3.909090   -1.428500
      9          6           0        4.575970   -4.036820   -2.345790
     10          6           0        5.310610   -2.893260   -2.708370
     11          6           0        6.498860   -3.004020   -3.436780
     12          6           0        6.974820   -4.259200   -3.805860
     13          6           0        6.250370   -5.402170   -3.465930
     14          6           0        5.060240   -5.292650   -2.741770
     15          6           0        0.429170   -6.132860   -1.102080
     16          6           0       -0.756030   -5.538920   -1.862350
     17          6           0       -0.471480   -4.040160   -1.951570
     18          6           0       -1.919150   -3.316660    0.465110
     19          6           0       -2.220390   -1.857400    0.048510
     20          8           0       -1.317510   -1.015670   -0.051600
     21          7           0       -3.552930   -1.532770   -0.226030
     22          6           0       -4.676940   -2.450690   -0.163240
     23          6           0       -3.850190   -0.156830   -0.575340
     24          1           0        1.781260   -3.176670    3.045890
     25          1           0        2.105940   -3.167340    1.315390
     26          1           0        1.738690   -4.711440    2.183550
     27          1           0        0.854990   -2.777030   -0.780200
     28          1           0        1.856140   -5.183840    0.183340
     29          1           0        2.991700   -2.884080   -1.468370
     30          1           0        3.725950   -4.116800   -0.410760
     31          1           0        4.967540   -1.906000   -2.409210
     32          1           0        7.059110   -2.110230   -3.698770
     33          1           0        7.907080   -4.344580   -4.355340
     34          1           0        6.622830   -6.379490   -3.756530
     35          1           0        4.519380   -6.194330   -2.469130
     36          1           0        0.948260   -6.887000   -1.697570
     37          1           0        0.061480   -6.611250   -0.185070
     38          1           0       -0.877380   -5.988470   -2.850950
     39          1           0       -1.677480   -5.736210   -1.306310
     40          1           0       -1.377020   -3.444610   -2.081070
     41          1           0        0.147020   -3.847030   -2.838250
     42          1           0       -2.380930   -3.996960   -0.251200
     43          1           0       -2.427590   -3.484360    1.417440
     44          1           0       -5.391380   -2.081200    0.583060
     45          1           0       -5.167780   -2.461000   -1.147520
     46          1           0       -4.397400   -3.466860    0.094250
     47          1           0       -3.578360    0.494970    0.261070
     48          1           0       -3.266840    0.130820   -1.456050
     49          1           0       -4.916050   -0.032690   -0.795660
 ---------------------------------------------------------------------
                    Distance matrix (angstroms):
                    1          2          3          4          5
     1  C    0.000000
     2  C    1.504102   0.000000
     3  O    2.350749   1.230098   0.000000
     4  N    2.502342   1.391776   2.296154   0.000000
     5  C    3.004886   2.566118   3.685119   1.505651   0.000000
     6  C    3.122685   3.258481   4.443513   2.588676   1.562253
     7  O    4.125906   4.502438   5.724642   3.843451   2.506295
     8  C    3.994960   4.707970   5.921291   4.358329   3.128665
     9  C    5.409980   6.215382   7.422379   5.857824   4.560416
    10  C    6.170561   7.002293   8.166810   6.706778   5.433415
    11  C    7.476083   8.369685   9.533532   8.082674   6.786618
    12  C    8.065423   8.993660  10.184760   8.674220   7.352207
    13  C    7.514782   8.410283   9.614082   8.048373   6.742231
    14  C    6.221303   7.053715   8.263584   6.667520   5.379779
    15  C    4.192425   4.003615   5.013818   3.130638   2.435296
    16  C    4.937809   4.332595   5.231045   3.097524   2.423086
    17  C    4.523044   3.887822   4.854203   2.563100   1.546625
    18  C    3.811558   2.406431   2.669524   1.480526   2.567882
    19  C    4.615835   3.311934   3.460069   2.557721   3.260447
    20  O    4.418396   3.391828   3.686581   2.841625   3.248624
    21  N    5.957396   4.580243   4.521329   3.819705   4.499538
    22  C    6.694282   5.228691   5.050877   4.427192   5.208210
    23  C    6.931100   5.656942   5.572090   4.992918   5.515474
    24  H    1.094360   2.130296   2.473964   3.380109   4.026004
    25  H    1.091105   2.162088   3.173638   2.734860   2.716982
    26  H    1.093587   2.132920   2.912878   2.934440   3.324621
    27  H    3.074085   2.850123   3.949073   2.102868   1.092922
    28  H    2.477765   3.011448   4.156635   2.821847   2.261007
    29  H    3.933126   4.490218   5.664680   4.108295   2.893192
    30  H    3.377465   4.381515   5.543166   4.349046   3.413185
    31  H    5.938185   6.708003   7.817373   6.459584   5.267316
    32  H    8.167478   9.059892  10.188118   8.809511   7.542868
    33  H    9.110803  10.068007  11.254038   9.759686   8.433778
    34  H    8.236891   9.133210  10.328829   8.759845   7.477532
    35  H    6.031408   6.802867   7.996403   6.385645   5.166937
    36  H    5.020493   5.017659   6.045753   4.204959   3.366946
    37  H    4.011652   3.749662   4.593047   3.100652   2.928815
    38  H    5.970984   5.420300   6.319108   4.169112   3.362187
    39  H    5.109098   4.254886   4.938728   3.052607   2.912734
    40  H    5.081071   4.187074   4.964014   2.817775   2.242962
    41  H    5.122040   4.715238   5.761475   3.483672   2.177120
    42  H    4.557633   3.252283   3.600967   2.100693   2.769647
    43  H    3.999368   2.502684   2.259304   2.123154   3.480718
    44  H    7.236805   5.745296   5.341280   5.155046   6.100422
    45  H    7.517846   6.094093   6.042953   5.135217   5.677552
    46  H    6.240178   4.771825   4.619228   3.949273   4.810734
    47  H    6.812137   5.597285   5.369438   5.188691   5.845426
    48  H    7.049441   5.904412   6.026145   5.123755   5.349180
    49  H    7.919017   6.586339   6.423611   5.889507   6.434862
                    6          7          8          9         10
     6  C    0.000000
     7  O    1.443236   0.000000
     8  C    2.392800   1.428743   0.000000
     9  C    3.732628   2.448824   1.516399   0.000000
    10  C    4.891000   3.668897   2.532903   1.406730   0.000000
    11  C    6.143840   4.842265   3.822209   2.440172   1.398137
    12  C    6.459166   5.104700   4.327970   2.817044   2.416583
    13  C    5.642437   4.316483   3.827104   2.433621   2.784183
    14  C    4.246515   2.942990   2.545213   1.403006   2.412649
    15  C    1.535050   2.407743   3.705549   4.810005   6.074836
    16  C    2.444186   3.164247   4.462292   5.560597   6.672285
    17  C    2.354417   2.901430   3.884342   5.062823   5.943121
    18  C    3.830466   5.024569   5.653972   7.113816   7.906938
    19  C    4.772446   5.716198   6.140210   7.528151   8.086368
    20  O    4.789230   5.532390   5.682405   7.008835   7.383478
    21  N    5.981031   6.902667   7.422433   8.765995   9.304584
    22  C    6.531671   7.559483   8.280433   9.638240  10.316235
    23  C    7.057920   7.821029   8.186227   9.443992   9.795822
    24  H    4.201738   5.122751   4.805976   6.133553   6.756341
    25  H    2.825064   3.509870   3.112920   4.501253   5.151279
    26  H    2.959728   4.007534   4.045862   5.387039   6.324182
    27  H    2.220873   2.696845   2.837880   4.228928   4.856326
    28  H    1.087063   2.052746   2.555526   3.887111   5.053920
    29  H    2.745444   2.060539   1.095146   2.146762   2.629644
    30  H    2.554594   2.079700   1.096325   2.115011   3.047492
    31  H    5.024730   3.976923   2.740356   2.167428   1.087141
    32  H    7.042891   5.779402   4.686240   3.421738   2.156683
    33  H    7.528205   6.168074   5.412349   3.902474   3.400073
    34  H    6.257522   4.987920   4.697805   3.415835   3.869672
    35  H    3.835787   2.688707   2.759396   2.161773   3.402990
    36  H    2.198927   2.493388   3.851055   4.658755   6.000148
    37  H    2.166717   3.302361   4.452961   5.628234   6.909693
    38  H    3.229544   3.574011   4.942878   5.814048   6.920396
    39  H    3.162851   4.132596   5.374326   6.563085   7.673431
    40  H    3.375434   3.952995   4.819301   5.988228   6.739576
    41  H    2.649357   2.601874   3.523168   4.460284   5.252543
    42  H    3.863042   5.010668   5.875999   7.265491   8.149578
    43  H    4.573675   5.876105   6.477092   7.969753   8.789280
    44  H    7.426662   8.514963   9.178309  10.571219  11.226110
    45  H    6.970440   7.873628   8.669445   9.942823  10.602818
    46  H    5.975450   7.103042   7.932744   9.316653  10.120729
    47  H    7.396709   8.190826   8.402564   9.686379   9.965514
    48  H    6.887249   7.464579   7.774252   8.925835   9.180741
    49  H    7.948463   8.726302   9.174564  10.417985  10.790083
                   11         12         13         14         15
    11  C    0.000000
    12  C    1.392205   0.000000
    13  C    2.411166   1.395264   0.000000
    14  C    2.791146   2.421967   1.397430   0.000000
    15  C    7.216758   7.325747   6.325193   4.984109   0.000000
    16  C    7.844615   8.073472   7.188867   5.887531   1.528226
    17  C    7.201741   7.676832   7.023648   5.726524   2.431501
    18  C    9.283608   9.911219   9.302875   7.930984   3.987690
    19  C    9.459773  10.255569   9.832114   8.520222   5.159805
    20  O    8.746921   9.663213   9.389986   8.136662   5.508179
    21  N   10.654200  11.449110  11.026055   9.728944   6.146984
    22  C   11.658505  12.341106  11.790891  10.466051   6.364916
    23  C   11.108428  12.018591  11.742675  10.510273   7.369078
    24  H    8.019387   8.665530   8.205461   6.980408   5.269996
    25  H    6.473603   7.150199   6.710573   5.450264   4.177323
    26  H    7.560596   7.968351   7.262850   5.969026   3.811908
    27  H    6.241972   6.985969   6.573784   5.278279   3.398018
    28  H    6.277876   6.555117   5.716126   4.339858   2.142239
    29  H    4.023580   4.818720   4.577112   3.420762   4.153950
    30  H    4.252541   4.701291   4.166406   2.931989   3.925708
    31  H    2.146273   3.393723   3.871113   3.404201   6.338118
    32  H    1.086913   2.153287   3.397815   3.878031   8.178047
    33  H    2.150334   1.085508   2.157368   3.406896   8.348700
    34  H    3.392846   2.149874   1.085509   2.156999   6.743023
    35  H    3.877211   3.400112   2.148826   1.086227   4.313053
    36  H    6.993679   6.904321   5.783095   4.532183   1.092149
    37  H    8.063844   8.150861   7.108324   5.767410   1.097707
    38  H    7.978662   8.096868   7.178215   5.979249   2.187800
    39  H    8.880107   9.126423   8.223524   6.903199   2.153373
    40  H    8.003846   8.566895   7.995433   6.729791   3.383405
    41  H    6.435431   6.908329   6.329560   5.122388   2.884253
    42  H    9.486017  10.011715   9.317105   7.953161   3.630803
    43  H   10.172300  10.783717  10.140626   8.754230   4.639355
    44  H   12.585250  13.301474  12.765324  11.428222   7.289338
    45  H   11.901515  12.559579  12.016641  10.731834   6.694062
    46  H   11.463458  12.048487  11.392775  10.041089   5.642211
    47  H   11.290146  12.268319  12.052830  10.823077   7.864261
    48  H   10.446024  11.387953  11.190660  10.020348   7.281447
    49  H   12.087369  12.973723  12.674801  11.444688   8.116486
                   16         17         18         19         20
    16  C    0.000000
    17  C    1.528140   0.000000
    18  C    3.421748   2.908529   0.000000
    19  C    4.398787   3.438524   1.547172   0.000000
    20  O    4.904474   3.670585   2.433827   1.238436   0.000000
    21  N    5.152614   4.331262   2.515785   1.398721   2.301069
    22  C    5.272350   4.838433   2.958062   2.536034   3.654794
    23  C    6.340119   5.328221   3.846554   2.436673   2.725138
    24  H    6.009067   5.549330   4.513652   5.170876   4.885360
    25  H    4.890122   4.251816   4.116628   4.694471   4.268297
    26  H    4.824693   4.736527   4.275306   5.327124   5.291027
    27  H    3.375570   2.174196   3.088341   3.315184   2.890156
    28  H    3.336819   3.359116   4.221205   5.263219   5.244129
    29  H    4.609650   3.682882   5.295462   5.524570   4.905862
    30  H    4.921147   4.471956   5.768408   6.377678   5.931483
    31  H    6.801207   5.860632   7.594615   7.596650   6.771474
    32  H    8.729534   7.967881   9.970081  10.010752   9.201504
    33  H    9.093455   8.721872  10.993096  11.320142  10.709663
    34  H    7.664336   7.685023  10.008426  10.636267  10.273562
    35  H    5.350485   5.460495   7.638417   8.400713   8.168981
    36  H    2.179238   3.191344   5.064243   6.195645   6.505032
    37  H    2.152088   3.164660   3.898712   5.278312   5.764542
    38  H    1.092772   2.183930   4.384074   5.222670   5.723532
    39  H    1.094154   2.178849   3.008414   4.144328   4.897691
    40  H    2.195359   1.091537   2.606398   2.786686   3.165760
    41  H    2.151830   1.098200   3.932243   4.230442   4.234013
    42  H    2.759302   2.557171   1.090481   2.166406   3.171560
    43  H    4.215727   3.935163   1.092505   2.136329   3.079738
    44  H    6.278720   5.870885   3.687364   3.223509   4.258470
    45  H    5.426611   5.019510   3.726436   3.237581   4.256125
    46  H    4.623991   4.463956   2.510343   2.707735   3.938950
    47  H    6.991587   5.925866   4.162107   2.724502   2.737013
    48  H    6.214113   5.045459   4.170401   2.704030   2.662106
    49  H    6.982991   6.095092   4.621191   3.362852   3.803862
                   21         22         23         24         25
    21  N    0.000000
    22  C    1.452556   0.000000
    23  C    1.450376   2.472880   0.000000
    24  H    6.470043   7.248028   7.344792   0.000000
    25  H    6.088563   6.979068   6.936391   1.760720   0.000000
    26  H    6.626557   7.195743   7.719555   1.760955   1.809093
    27  H    4.613572   5.575786   5.389447   3.956849   2.471582
    28  H    6.538802   7.090230   7.642554   3.496932   2.325986
    29  H    6.797178   7.790971   7.419357   4.682875   2.934983
    30  H    7.726152   8.570050   8.550225   4.076039   2.550588
    31  H    8.803635   9.917513   9.174695   6.443997   4.863371
    32  H   11.180732  12.261760  11.514531   8.630379   7.126933
    33  H   12.501572  13.398436  13.040669   9.678217   8.197335
    34  H   11.811063  12.491277  12.590696   8.942694   7.512960
    35  H    9.587691  10.193344  10.492261   6.857042   5.413867
    36  H    7.148001   7.326520   8.341445   6.079544   4.924837
    37  H    6.233506   6.305820   7.557315   5.019271   4.276881
    38  H    5.822545   5.846052   6.929937   7.053177   5.849561
    39  H    4.727920   4.593257   6.031954   6.120112   5.271306
    40  H    3.439606   3.944036   4.381015   6.027623   4.872764
    41  H    5.086170   5.689994   5.892031   6.143552   4.642421
    42  H    2.728818   2.769540   4.124365   5.372849   4.824363
    43  H    2.788564   2.937107   4.131273   4.523377   4.545746
    44  H    2.082138   1.097229   2.724033   7.662398   7.610901
    45  H    2.078099   1.099926   2.715259   8.147762   7.711799
    46  H    2.134576   1.084917   3.421124   6.853629   6.623770
    47  H    2.085580   3.172354   1.094676   7.068358   6.843637
    48  H    2.088619   3.213088   1.094847   7.529294   6.886618
    49  H    2.105425   2.510747   1.095449   8.336431   7.974391
                   26         27         28         29         30
    26  H    0.000000
    27  H    3.647832   0.000000
    28  H    2.058591   2.779109   0.000000
    29  H    4.271510   2.247347   3.050662   0.000000
    30  H    3.321633   3.189652   2.233320   1.782487   0.000000
    31  H    6.276098   4.508374   5.210217   2.397032   3.228465
    32  H    8.347146   6.888670   7.182531   4.702909   5.093848
    33  H    8.996705   8.060447   7.610378   5.884608   5.752690
    34  H    7.869038   7.423223   6.298689   5.535221   4.970499
    35  H    5.619487   5.287549   3.892240   3.780619   3.030272
    36  H    4.518953   4.212140   2.694962   4.500172   4.128614
    37  H    3.468814   3.960439   2.322505   4.911705   4.438644
    38  H    5.815567   4.195528   4.162508   5.149616   5.536093
    39  H    4.989939   3.930260   3.874357   5.473769   5.711528
    40  H    5.431343   2.668294   4.313444   4.446944   5.411292
    41  H    5.338454   2.425220   3.719968   3.300916   4.332923
    42  H    4.838363   3.498464   4.421569   5.620067   6.110139
    43  H    4.410277   4.013137   4.770910   6.169031   6.450453
    44  H    7.766442   6.431158   7.893839   8.667699   9.394522
    45  H    7.991235   6.042231   7.649869   8.176739   9.076504
    46  H    6.600436   5.369183   6.485578   7.574973   8.164942
    47  H    7.685939   5.607568   7.860580   7.587795   8.664452
    48  H    7.858085   5.089386   7.561622   6.946877   8.248274
    49  H    8.663253   6.390348   8.564773   8.432999   9.566204
                   31         32         33         34         35
    31  H    0.000000
    32  H    2.465632   0.000000
    33  H    4.286606   2.478398   0.000000
    34  H    4.956548   4.291883   2.479663   0.000000
    35  H    4.312101   4.964083   4.296030   2.473092   0.000000
    36  H    6.439830   8.010295   7.871011   6.057857   3.718601
    37  H    7.152314   9.031727   9.169645   7.473978   5.026293
    38  H    7.143164   8.873974   9.062687   7.564795   5.414165
    39  H    7.748754   9.757028  10.153670   8.678279   6.321637
    40  H    6.536699   8.692860   9.600873   8.684370   6.517598
    41  H    5.214315   7.178716   7.922604   7.013751   4.976304
    42  H    7.939089  10.225451  11.081875   9.951456   7.573766
    43  H    8.474811  10.865602  11.868882  10.819512   8.408909
    44  H   10.783858  13.166230  14.365226  13.477707  11.156024
    45  H   10.228617  12.495149  13.593747  12.695668  10.465442
    46  H    9.818640  12.144096  13.113713  12.031517   9.670521
    47  H    9.269707  11.645736  13.290892  12.940772  10.852379
    48  H    8.535934  10.801729  12.381098  12.061589  10.082613
    49  H   10.188139  12.495946  13.989152  13.497940  11.392702
                   36         37         38         39         40
    36  H    0.000000
    37  H    1.774845   0.000000
    38  H    2.338932   2.894172   0.000000
    39  H    2.893426   2.246521   1.757756   0.000000
    40  H    4.171816   3.961276   2.704363   2.437614   0.000000
    41  H    3.344332   3.832440   2.373883   3.040500   1.748703
    42  H    4.639809   3.578303   3.603536   2.152461   2.159016
    43  H    5.716433   4.305920   5.185834   3.612798   3.653060
    44  H    8.275749   7.130572   6.887335   5.542731   5.007151
    45  H    7.569543   6.745076   5.809669   4.788988   4.026024
    46  H    6.594244   5.463224   5.236722   3.809131   3.722258
    47  H    8.878065   7.996614   7.682119   6.700569   5.084467
    48  H    8.189945   7.625524   6.715726   6.080339   4.092159
    49  H    9.065602   8.272006   7.483742   6.578696   5.081162
                   41         42         43         44         45
    41  H    0.000000
    42  H    3.620199   0.000000
    43  H    4.987088   1.746223   0.000000
    44  H    6.745175   3.664551   3.383652   0.000000
    45  H    5.746890   3.305918   3.890363   1.785820   0.000000
    46  H    5.421793   2.113408   2.373034   1.773974   1.774044
    47  H    6.506705   4.676932   4.300759   3.166602   3.639799
    48  H    5.421089   4.390338   4.693699   3.683025   3.228977
    49  H    6.660033   4.736951   4.796277   2.514598   2.466549
                   46         47         48         49
    46  H    0.000000
    47  H    4.049043   0.000000
    48  H    4.077364   1.782737   0.000000
    49  H    3.585312   1.784522   1.784025   0.000000
 Stoichiometry    C18H26N2O3
 Framework group  C1[X(C18H26N2O3)]
 Deg. of freedom   141
 Full point group                 C1      NOp   1
 Largest Abelian subgroup         C1      NOp   1
 Largest concise Abelian subgroup C1      NOp   1
                         Standard orientation:                         
 ---------------------------------------------------------------------
 Center     Atomic      Atomic             Coordinates (Angstroms)
 Number     Number       Type             X           Y           Z
 ---------------------------------------------------------------------
      1          6           0        0.438881   -2.071064   -2.167994
      2          6           0        1.739245   -1.698072   -1.510534
      3          8           0        2.783541   -2.119065   -2.005863
      4          7           0        1.724001   -0.959893   -0.330746
      5          6           0        0.520118   -0.234170    0.208677
      6          6           0       -0.686029   -1.148755    0.595172
      7          8           0       -1.911562   -0.411621    0.789162
      8          6           0       -2.533968   -0.036544   -0.440974
      9          6           0       -3.971426    0.407551   -0.251345
     10          6           0       -4.492700    1.458220   -1.028042
     11          6           0       -5.849549    1.790289   -0.969072
     12          6           0       -6.706745    1.071909   -0.139988
     13          6           0       -6.202410    0.036126    0.647134
     14          6           0       -4.845616   -0.293937    0.592535
     15          6           0       -0.273278   -1.740215    1.950233
     16          6           0        0.680940   -0.723863    2.576309
     17          6           0        0.746984    0.436256    1.583852
     18          6           0        3.067965   -0.544806    0.131231
     19          6           0        3.543412    0.837214   -0.376421
     20          8           0        2.888532    1.478831   -1.208997
     21          7           0        4.735415    1.338847    0.156414
     22          6           0        5.560123    0.678037    1.152961
     23          6           0        5.210751    2.613842   -0.345616
     24          1           0        0.632985   -2.368619   -3.203082
     25          1           0       -0.257549   -1.231593   -2.195980
     26          1           0        0.009899   -2.937869   -1.657547
     27          1           0        0.246709    0.523304   -0.530214
     28          1           0       -0.899848   -1.968904   -0.085522
     29          1           0       -1.956539    0.776380   -0.893827
     30          1           0       -2.549968   -0.887452   -1.132080
     31          1           0       -3.843828    2.015562   -1.699020
     32          1           0       -6.236923    2.598079   -1.584535
     33          1           0       -7.763318    1.318961   -0.109261
     34          1           0       -6.872654   -0.521194    1.294048
     35          1           0       -4.474038   -1.115806    1.197804
     36          1           0       -1.129109   -1.937231    2.599485
     37          1           0        0.264045   -2.684360    1.792644
     38          1           0        0.342978   -0.395631    3.562310
     39          1           0        1.662966   -1.186643    2.712816
     40          1           0        1.665609    1.018798    1.674555
     41          1           0       -0.075201    1.133034    1.794930
     42          1           0        3.078499   -0.549631    1.221650
     43          1           0        3.818930   -1.272598   -0.184897
     44          1           0        6.554268    0.499489    0.724349
     45          1           0        5.663253    1.352319    2.015831
     46          1           0        5.154423   -0.266742    1.499145
     47          1           0        5.407431    2.528706   -1.419108
     48          1           0        4.444947    3.379166   -0.182786
     49          1           0        6.131828    2.914526    0.165477
 ---------------------------------------------------------------------
 Rotational constants (GHZ):      0.4901697      0.1056262      0.1038337
 Standard basis: 6-31G(d,p) (6D, 7F)
 There are   475 symmetry adapted basis functions of A   symmetry.
 Integral buffers will be    131072 words long.
 Raffenetti 2 integral format.
 Two-electron integral symmetry is turned on.
   475 basis functions,   826 primitive gaussians,   475 cartesian basis functions
    86 alpha electrons       86 beta electrons
       nuclear repulsion energy      1960.1746748479 Hartrees.
 NAtoms=   49 NActive=   49 NUniq=   49 SFac= 1.00D+00 NAtFMM=   60 NAOKFM=F Big=F
 One-electron integrals computed using PRISM.
 NBasis=   475 RedAO= T  NBF=   475
 NBsUse=   475 1.00D-06 NBFU=   475
 Harris functional with IExCor=  402 diagonalized for initial guess.
 ExpMin= 1.61D-01 ExpMax= 5.48D+03 ExpMxC= 8.25D+02 IAcc=1 IRadAn=         1 AccDes= 0.00D+00
 HarFok:  IExCor=  402 AccDes= 0.00D+00 IRadAn=         1 IDoV= 1
 ScaDFX=  1.000000  1.000000  1.000000  1.000000
 FoFCou: FMM=F IPFlag=           0 FMFlag=      100000 FMFlg1=           0
         NFxFlg=           0 DoJE=T BraDBF=F KetDBF=T FulRan=T
         Omega=  0.000000  0.000000  1.000000  0.000000  0.000000 ICntrl=     500 IOpCl=  0
         NMat0=    1 NMatS0=    1 NMatT0=    0 NMatD0=    1 NMtDS0=    0 NMtDT0=    0
         I1Cent=           4 NGrid=           0.
 Petite list used in FoFCou.
 Initial guess orbital symmetries:
       Occupied  (A) (A) (A) (A) (A) (A) (A) (A) (A) (A) (A) (A)
                 (A) (A) (A) (A) (A) (A) (A) (A) (A) (A) (A) (A)
                 (A) (A) (A) (A) (A) (A) (A) (A) (A) (A) (A) (A)
                 (A) (A) (A) (A) (A) (A) (A) (A) (A) (A) (A) (A)
                 (A) (A) (A) (A) (A) (A) (A) (A) (A) (A) (A) (A)
                 (A) (A) (A) (A) (A) (A) (A) (A) (A) (A) (A) (A)
                 (A) (A) (A) (A) (A) (A) (A) (A) (A) (A) (A) (A)
                 (A) (A)
       Virtual   (A) (A) (A) (A) (A) (A) (A) (A) (A) (A) (A) (A)
                 (A) (A) (A) (A) (A) (A) (A) (A) (A) (A) (A) (A)
                 (A) (A) (A) (A) (A) (A) (A) (A) (A) (A) (A) (A)
                 (A) (A) (A) (A) (A) (A) (A) (A) (A) (A) (A) (A)
                 (A) (A) (A) (A) (A) (A) (A) (A) (A) (A) (A) (A)
                 (A) (A) (A) (A) (A) (A) (A) (A) (A) (A) (A) (A)
                 (A) (A) (A) (A) (A) (A) (A) (A) (A) (A) (A) (A)
                 (A) (A) (A) (A) (A) (A) (A) (A) (A) (A) (A) (A)
                 (A) (A) (A) (A) (A) (A) (A) (A) (A) (A) (A) (A)
                 (A) (A) (A) (A) (A) (A) (A) (A) (A) (A) (A) (A)
                 (A) (A) (A) (A) (A) (A) (A) (A) (A) (A) (A) (A)
                 (A) (A) (A) (A) (A) (A) (A) (A) (A) (A) (A) (A)
                 (A) (A) (A) (A) (A) (A) (A) (A) (A) (A) (A) (A)
                 (A) (A) (A) (A) (A) (A) (A) (A) (A) (A) (A) (A)
                 (A) (A) (A) (A) (A) (A) (A) (A) (A) (A) (A) (A)
                 (A) (A) (A) (A) (A) (A) (A) (A) (A) (A) (A) (A)
                 (A) (A) (A) (A) (A) (A) (A) (A) (A) (A) (A) (A)
                 (A) (A) (A) (A) (A) (A) (A) (A) (A) (A) (A) (A)
                 (A) (A) (A) (A) (A) (A) (A) (A) (A) (A) (A) (A)
                 (A) (A) (A) (A) (A) (A) (A) (A) (A) (A) (A) (A)
                 (A) (A) (A) (A) (A) (A) (A) (A) (A) (A) (A) (A)
                 (A) (A) (A) (A) (A) (A) (A) (A) (A) (A) (A) (A)
                 (A) (A) (A) (A) (A) (A) (A) (A) (A) (A) (A) (A)
                 (A) (A) (A) (A) (A) (A) (A) (A) (A) (A) (A) (A)
                 (A) (A) (A) (A) (A) (A) (A) (A) (A) (A) (A) (A)
                 (A) (A) (A) (A) (A) (A) (A) (A) (A) (A) (A) (A)
                 (A) (A) (A) (A) (A) (A) (A) (A) (A) (A) (A) (A)
                 (A) (A) (A) (A) (A) (A) (A) (A) (A) (A) (A) (A)
                 (A) (A) (A) (A) (A) (A) (A) (A) (A) (A) (A) (A)
                 (A) (A) (A) (A) (A) (A) (A) (A) (A) (A) (A) (A)
                 (A) (A) (A) (A) (A) (A) (A) (A) (A) (A) (A) (A)
                 (A) (A) (A) (A) (A) (A) (A) (A) (A) (A) (A) (A)
                 (A) (A) (A) (A) (A)
 The electronic state of the initial guess is 1-A.
 Requested convergence on RMS density matrix=1.00D-08 within 128 cycles.
 Requested convergence on MAX density matrix=1.00D-06.
 Requested convergence on             energy=1.00D-06.
 No special actions if energy rises.
 Integral accuracy reduced to 1.0D-05 until final iterations.
 Initial convergence to 1.0D-05 achieved.  Increase integral accuracy.
 SCF Done:  E(RB3LYP) =  -1036.77200913     A.U. after   15 cycles
             Convg  =    0.7805D-08             -V/T =  2.0097

 **********************************************************************

            Population analysis using the SCF density.

 **********************************************************************

 Orbital symmetries:
       Occupied  (A) (A) (A) (A) (A) (A) (A) (A) (A) (A) (A) (A)
                 (A) (A) (A) (A) (A) (A) (A) (A) (A) (A) (A) (A)
                 (A) (A) (A) (A) (A) (A) (A) (A) (A) (A) (A) (A)
                 (A) (A) (A) (A) (A) (A) (A) (A) (A) (A) (A) (A)
                 (A) (A) (A) (A) (A) (A) (A) (A) (A) (A) (A) (A)
                 (A) (A) (A) (A) (A) (A) (A) (A) (A) (A) (A) (A)
                 (A) (A) (A) (A) (A) (A) (A) (A) (A) (A) (A) (A)
                 (A) (A)
       Virtual   (A) (A) (A) (A) (A) (A) (A) (A) (A) (A) (A) (A)
                 (A) (A) (A) (A) (A) (A) (A) (A) (A) (A) (A) (A)
                 (A) (A) (A) (A) (A) (A) (A) (A) (A) (A) (A) (A)
                 (A) (A) (A) (A) (A) (A) (A) (A) (A) (A) (A) (A)
                 (A) (A) (A) (A) (A) (A) (A) (A) (A) (A) (A) (A)
                 (A) (A) (A) (A) (A) (A) (A) (A) (A) (A) (A) (A)
                 (A) (A) (A) (A) (A) (A) (A) (A) (A) (A) (A) (A)
                 (A) (A) (A) (A) (A) (A) (A) (A) (A) (A) (A) (A)
                 (A) (A) (A) (A) (A) (A) (A) (A) (A) (A) (A) (A)
                 (A) (A) (A) (A) (A) (A) (A) (A) (A) (A) (A) (A)
                 (A) (A) (A) (A) (A) (A) (A) (A) (A) (A) (A) (A)
                 (A) (A) (A) (A) (A) (A) (A) (A) (A) (A) (A) (A)
                 (A) (A) (A) (A) (A) (A) (A) (A) (A) (A) (A) (A)
                 (A) (A) (A) (A) (A) (A) (A) (A) (A) (A) (A) (A)
                 (A) (A) (A) (A) (A) (A) (A) (A) (A) (A) (A) (A)
                 (A) (A) (A) (A) (A) (A) (A) (A) (A) (A) (A) (A)
                 (A) (A) (A) (A) (A) (A) (A) (A) (A) (A) (A) (A)
                 (A) (A) (A) (A) (A) (A) (A) (A) (A) (A) (A) (A)
                 (A) (A) (A) (A) (A) (A) (A) (A) (A) (A) (A) (A)
                 (A) (A) (A) (A) (A) (A) (A) (A) (A) (A) (A) (A)
                 (A) (A) (A) (A) (A) (A) (A) (A) (A) (A) (A) (A)
                 (A) (A) (A) (A) (A) (A) (A) (A) (A) (A) (A) (A)
                 (A) (A) (A) (A) (A) (A) (A) (A) (A) (A) (A) (A)
                 (A) (A) (A) (A) (A) (A) (A) (A) (A) (A) (A) (A)
                 (A) (A) (A) (A) (A) (A) (A) (A) (A) (A) (A) (A)
                 (A) (A) (A) (A) (A) (A) (A) (A) (A) (A) (A) (A)
                 (A) (A) (A) (A) (A) (A) (A) (A) (A) (A) (A) (A)
                 (A) (A) (A) (A) (A) (A) (A) (A) (A) (A) (A) (A)
                 (A) (A) (A) (A) (A) (A) (A) (A) (A) (A) (A) (A)
                 (A) (A) (A) (A) (A) (A) (A) (A) (A) (A) (A) (A)
                 (A) (A) (A) (A) (A) (A) (A) (A) (A) (A) (A) (A)
                 (A) (A) (A) (A) (A) (A) (A) (A) (A) (A) (A) (A)
                 (A) (A) (A) (A) (A)
 The electronic state is 1-A.
 Alpha  occ. eigenvalues --  -19.15554 -19.10964 -19.10203 -14.36568 -14.36420
 Alpha  occ. eigenvalues --  -10.28482 -10.28004 -10.23985 -10.23882 -10.23174
 Alpha  occ. eigenvalues --  -10.23136 -10.22631 -10.21591 -10.19777 -10.18985
 Alpha  occ. eigenvalues --  -10.18874 -10.18835 -10.18759 -10.18709 -10.18657
 Alpha  occ. eigenvalues --  -10.18444 -10.18151 -10.18079  -1.03244  -1.02484
 Alpha  occ. eigenvalues --   -1.01685  -0.92973  -0.91992  -0.85221  -0.83104
 Alpha  occ. eigenvalues --   -0.76643  -0.75864  -0.74083  -0.73176  -0.72333
 Alpha  occ. eigenvalues --   -0.71450  -0.70514  -0.67233  -0.66269  -0.60375
 Alpha  occ. eigenvalues --   -0.59409  -0.57887  -0.56823  -0.55726  -0.53123
 Alpha  occ. eigenvalues --   -0.51475  -0.50971  -0.50670  -0.49004  -0.48976
 Alpha  occ. eigenvalues --   -0.47499  -0.46897  -0.46515  -0.45641  -0.44966
 Alpha  occ. eigenvalues --   -0.44448  -0.44051  -0.42676  -0.42212  -0.41584
 Alpha  occ. eigenvalues --   -0.41302  -0.41139  -0.40992  -0.40184  -0.39636
 Alpha  occ. eigenvalues --   -0.39105  -0.38535  -0.37787  -0.37207  -0.36340
 Alpha  occ. eigenvalues --   -0.35599  -0.34846  -0.34763  -0.34135  -0.33966
 Alpha  occ. eigenvalues --   -0.33786  -0.33282  -0.32522  -0.31188  -0.26892
 Alpha  occ. eigenvalues --   -0.25294  -0.24769  -0.24141  -0.24117  -0.23526
 Alpha  occ. eigenvalues --   -0.22821
 Alpha virt. eigenvalues --   -0.00336   0.00005   0.02539   0.02824   0.06636
 Alpha virt. eigenvalues --    0.08429   0.08571   0.09286   0.09741   0.11322
 Alpha virt. eigenvalues --    0.12300   0.12944   0.13062   0.13456   0.13834
 Alpha virt. eigenvalues --    0.14039   0.14377   0.14749   0.14860   0.15021
 Alpha virt. eigenvalues --    0.15837   0.16385   0.16457   0.16687   0.16881
 Alpha virt. eigenvalues --    0.17685   0.17968   0.18431   0.18885   0.19384
 Alpha virt. eigenvalues --    0.19930   0.21671   0.21851   0.22570   0.22746
 Alpha virt. eigenvalues --    0.23500   0.23912   0.24847   0.25520   0.26011
 Alpha virt. eigenvalues --    0.26915   0.27387   0.28678   0.30222   0.30728
 Alpha virt. eigenvalues --    0.31929   0.32735   0.33635   0.34613   0.35518
 Alpha virt. eigenvalues --    0.36365   0.37993   0.40044   0.46277   0.48705
 Alpha virt. eigenvalues --    0.49705   0.49916   0.50370   0.51451   0.51529
 Alpha virt. eigenvalues --    0.53107   0.53366   0.53850   0.54185   0.54625
 Alpha virt. eigenvalues --    0.55526   0.56343   0.57269   0.57450   0.58002
 Alpha virt. eigenvalues --    0.59042   0.59507   0.59671   0.59782   0.60276
 Alpha virt. eigenvalues --    0.60778   0.61321   0.61564   0.61676   0.62214
 Alpha virt. eigenvalues --    0.62668   0.63658   0.63893   0.65202   0.65558
 Alpha virt. eigenvalues --    0.65953   0.66526   0.67052   0.68833   0.69765
 Alpha virt. eigenvalues --    0.70046   0.70775   0.71462   0.73907   0.74887
 Alpha virt. eigenvalues --    0.75407   0.76005   0.77052   0.77570   0.78949
 Alpha virt. eigenvalues --    0.80548   0.80851   0.81336   0.81653   0.81716
 Alpha virt. eigenvalues --    0.82394   0.82523   0.82693   0.83350   0.83918
 Alpha virt. eigenvalues --    0.84034   0.85126   0.85511   0.86721   0.87424
 Alpha virt. eigenvalues --    0.87997   0.88134   0.88578   0.89151   0.89885
 Alpha virt. eigenvalues --    0.90340   0.90956   0.91568   0.91989   0.92255
 Alpha virt. eigenvalues --    0.92952   0.93194   0.93618   0.94578   0.95045
 Alpha virt. eigenvalues --    0.95323   0.96812   0.98073   0.98585   1.00357
 Alpha virt. eigenvalues --    1.01009   1.02069   1.02827   1.04091   1.05670
 Alpha virt. eigenvalues --    1.07191   1.08380   1.08857   1.09251   1.10980
 Alpha virt. eigenvalues --    1.11783   1.13633   1.14509   1.15097   1.16459
 Alpha virt. eigenvalues --    1.17610   1.19137   1.20579   1.22592   1.24860
 Alpha virt. eigenvalues --    1.26468   1.27220   1.28746   1.28830   1.29242
 Alpha virt. eigenvalues --    1.31967   1.33787   1.34492   1.34759   1.36055
 Alpha virt. eigenvalues --    1.38212   1.38878   1.39945   1.40742   1.42056
 Alpha virt. eigenvalues --    1.42582   1.43232   1.44588   1.46189   1.46515
 Alpha virt. eigenvalues --    1.50263   1.51254   1.53818   1.55440   1.59238
 Alpha virt. eigenvalues --    1.61037   1.63361   1.64641   1.65290   1.66237
 Alpha virt. eigenvalues --    1.67608   1.69601   1.69821   1.70035   1.71465
 Alpha virt. eigenvalues --    1.72516   1.74918   1.75535   1.75918   1.77889
 Alpha virt. eigenvalues --    1.78052   1.78500   1.79250   1.79937   1.80817
 Alpha virt. eigenvalues --    1.81563   1.82955   1.84681   1.85770   1.86259
 Alpha virt. eigenvalues --    1.87383   1.87769   1.88588   1.88772   1.89591
 Alpha virt. eigenvalues --    1.89854   1.91223   1.91946   1.92650   1.93035
 Alpha virt. eigenvalues --    1.93675   1.94841   1.95173   1.95939   1.96348
 Alpha virt. eigenvalues --    1.97168   1.97964   1.98052   1.99128   1.99480
 Alpha virt. eigenvalues --    2.00258   2.01252   2.01564   2.01951   2.02797
 Alpha virt. eigenvalues --    2.03015   2.03488   2.04455   2.05032   2.05676
 Alpha virt. eigenvalues --    2.06192   2.06536   2.08238   2.08924   2.09315
 Alpha virt. eigenvalues --    2.10264   2.12069   2.13547   2.13926   2.15081
 Alpha virt. eigenvalues --    2.15572   2.16097   2.17321   2.18578   2.20111
 Alpha virt. eigenvalues --    2.22935   2.23366   2.24534   2.26628   2.28116
 Alpha virt. eigenvalues --    2.28521   2.29491   2.29641   2.30063   2.31269
 Alpha virt. eigenvalues --    2.31824   2.32634   2.33564   2.35200   2.35665
 Alpha virt. eigenvalues --    2.36794   2.37502   2.37763   2.38296   2.39589
 Alpha virt. eigenvalues --    2.40955   2.41525   2.42220   2.43641   2.44145
 Alpha virt. eigenvalues --    2.44731   2.45047   2.45809   2.48274   2.49254
 Alpha virt. eigenvalues --    2.49780   2.50538   2.52251   2.53094   2.53897
 Alpha virt. eigenvalues --    2.55195   2.55364   2.55784   2.57193   2.59369
 Alpha virt. eigenvalues --    2.59965   2.60976   2.61685   2.62240   2.62868
 Alpha virt. eigenvalues --    2.63745   2.64674   2.65235   2.66875   2.67691
 Alpha virt. eigenvalues --    2.68408   2.69464   2.69890   2.70406   2.70909
 Alpha virt. eigenvalues --    2.71682   2.73207   2.75203   2.75492   2.76401
 Alpha virt. eigenvalues --    2.76976   2.79060   2.80145   2.81443   2.82602
 Alpha virt. eigenvalues --    2.83413   2.83872   2.84348   2.86193   2.86473
 Alpha virt. eigenvalues --    2.87263   2.88492   2.89485   2.89574   2.91276
 Alpha virt. eigenvalues --    2.93653   2.94743   2.95788   2.97303   2.99669
 Alpha virt. eigenvalues --    3.04761   3.05372   3.05945   3.09005   3.10792
 Alpha virt. eigenvalues --    3.12219   3.13218   3.14000   3.19104   3.19305
 Alpha virt. eigenvalues --    3.23992   3.24331   3.25117   3.25411   3.27099
 Alpha virt. eigenvalues --    3.27758   3.30885   3.36051   3.36562   3.37175
 Alpha virt. eigenvalues --    3.38799   3.39859   3.41632   3.42032   3.42584
 Alpha virt. eigenvalues --    3.43211   3.44563   3.46570   3.47259   3.47670
 Alpha virt. eigenvalues --    3.48691   3.50686   3.52357   3.53286   3.56794
 Alpha virt. eigenvalues --    3.89327   3.95320   4.02917   4.08905   4.11562
 Alpha virt. eigenvalues --    4.13225   4.15857   4.16480   4.19809   4.33816
 Alpha virt. eigenvalues --    4.36464   4.38077   4.41770   4.43662   4.48297
 Alpha virt. eigenvalues --    4.52309   4.53345   4.54572   4.57948   4.67626
 Alpha virt. eigenvalues --    4.73259   4.79238   4.83380   4.86845
          Condensed to atoms (all electrons):
              1          2          3          4          5          6
     1  C    5.156351   0.353440  -0.087558  -0.118866   0.001496  -0.003192
     2  C    0.353440   4.354314   0.576452   0.243719  -0.019266  -0.004677
     3  O   -0.087558   0.576452   8.092034  -0.092343   0.002234  -0.000065
     4  N   -0.118866   0.243719  -0.092343   7.166635   0.198782  -0.030753
     5  C    0.001496  -0.019266   0.002234   0.198782   5.030311   0.313365
     6  C   -0.003192  -0.004677  -0.000065  -0.030753   0.313365   4.854849
     7  O    0.000056   0.000066   0.000000   0.001636  -0.033822   0.188481
     8  C   -0.000752   0.000060   0.000000   0.000056  -0.005026  -0.020134
     9  C    0.000022   0.000000   0.000000  -0.000001   0.000189   0.002541
    10  C    0.000000   0.000000   0.000000   0.000000  -0.000004  -0.000033
    11  C    0.000000   0.000000   0.000000   0.000000   0.000000   0.000002
    12  C    0.000000   0.000000   0.000000   0.000000   0.000000   0.000000
    13  C    0.000000   0.000000   0.000000   0.000000   0.000000   0.000005
    14  C    0.000000   0.000000   0.000000   0.000000   0.000018   0.000302
    15  C   -0.000313   0.000686   0.000007  -0.000839  -0.064371   0.367937
    16  C   -0.000010  -0.000118  -0.000002   0.003231  -0.066629  -0.068752
    17  C    0.000015   0.001504  -0.000064  -0.034099   0.351040  -0.043516
    18  C    0.006491  -0.031382  -0.006047   0.287901  -0.041452   0.001272
    19  C   -0.000108   0.000417  -0.000116  -0.045250  -0.000122   0.000039
    20  O   -0.000045   0.005758  -0.000561  -0.002282   0.002414   0.000142
    21  N   -0.000001   0.000145  -0.000049   0.002183   0.000137   0.000001
    22  C    0.000000  -0.000011   0.000004   0.000258  -0.000019   0.000000
    23  C    0.000000  -0.000008   0.000001  -0.000074  -0.000006   0.000000
    24  H    0.367773  -0.020919   0.002733   0.004165  -0.000145   0.000394
    25  H    0.352662  -0.021833   0.003137   0.001799   0.003274  -0.004485
    26  H    0.369351  -0.022832  -0.000015   0.002174  -0.000949  -0.003998
    27  H    0.000051  -0.001736   0.000062  -0.044061   0.383914  -0.045387
    28  H    0.001564  -0.001735  -0.000008   0.000560  -0.059411   0.381383
    29  H   -0.000203   0.000003   0.000000  -0.000322   0.003863  -0.004065
    30  H   -0.000307  -0.000049   0.000000   0.000115  -0.002334  -0.010493
    31  H    0.000000   0.000000   0.000000   0.000000  -0.000002  -0.000002
    32  H    0.000000   0.000000   0.000000   0.000000   0.000000   0.000000
    33  H    0.000000   0.000000   0.000000   0.000000   0.000000   0.000000
    34  H    0.000000   0.000000   0.000000   0.000000   0.000000   0.000000
    35  H    0.000000   0.000000   0.000000   0.000000   0.000022  -0.000042
    36  H    0.000015  -0.000019   0.000000   0.000034   0.004630  -0.024474
    37  H    0.000009   0.000401  -0.000015   0.002500   0.001322  -0.029743
    38  H    0.000000   0.000004   0.000000   0.000040   0.005046   0.003104
    39  H    0.000001  -0.000055   0.000000   0.001926  -0.001394   0.002396
    40  H    0.000001  -0.000123  -0.000002  -0.006515  -0.026915   0.004670
    41  H    0.000011  -0.000024   0.000000   0.003542  -0.029289  -0.004394
    42  H   -0.000108   0.005610   0.000973  -0.042711  -0.005633   0.000144
    43  H    0.001006  -0.005284   0.023737  -0.030970   0.004375  -0.000009
    44  H    0.000000   0.000003   0.000000  -0.000007   0.000000   0.000000
    45  H    0.000000  -0.000001   0.000000  -0.000003   0.000003   0.000000
    46  H    0.000000  -0.000025  -0.000017   0.000083   0.000010   0.000000
    47  H    0.000000   0.000003  -0.000001  -0.000003  -0.000001   0.000000
    48  H    0.000000  -0.000001   0.000000   0.000002   0.000001   0.000000
    49  H    0.000000   0.000000   0.000000   0.000001   0.000000   0.000000
              7          8          9         10         11         12
     1  C    0.000056  -0.000752   0.000022   0.000000   0.000000   0.000000
     2  C    0.000066   0.000060   0.000000   0.000000   0.000000   0.000000
     3  O    0.000000   0.000000   0.000000   0.000000   0.000000   0.000000
     4  N    0.001636   0.000056  -0.000001   0.000000   0.000000   0.000000
     5  C   -0.033822  -0.005026   0.000189  -0.000004   0.000000   0.000000
     6  C    0.188481  -0.020134   0.002541  -0.000033   0.000002   0.000000
     7  O    8.320555   0.205731  -0.036755   0.001145  -0.000060   0.000002
     8  C    0.205731   4.837902   0.356936  -0.048740   0.005848   0.000316
     9  C   -0.036755   0.356936   4.788474   0.530442  -0.023578  -0.034317
    10  C    0.001145  -0.048740   0.530442   4.902754   0.521988  -0.039785
    11  C   -0.000060   0.005848  -0.023578   0.521988   4.817813   0.551738
    12  C    0.000002   0.000316  -0.034317  -0.039785   0.551738   4.804015
    13  C    0.000301   0.005636  -0.025638  -0.044961  -0.031016   0.545148
    14  C    0.005052  -0.058376   0.519830  -0.035976  -0.045255  -0.037724
    15  C   -0.041085   0.004928  -0.000076   0.000002   0.000000   0.000000
    16  C    0.000673  -0.000075   0.000008   0.000000   0.000000   0.000000
    17  C   -0.004478  -0.000196  -0.000060   0.000000   0.000000   0.000000
    18  C   -0.000018   0.000000   0.000000   0.000000   0.000000   0.000000
    19  C    0.000000   0.000000   0.000000   0.000000   0.000000   0.000000
    20  O    0.000000   0.000000   0.000000   0.000000   0.000000   0.000000
    21  N    0.000000   0.000000   0.000000   0.000000   0.000000   0.000000
    22  C    0.000000   0.000000   0.000000   0.000000   0.000000   0.000000
    23  C    0.000000   0.000000   0.000000   0.000000   0.000000   0.000000
    24  H   -0.000004  -0.000006   0.000000   0.000000   0.000000   0.000000
    25  H   -0.000140   0.000710  -0.000011   0.000001   0.000000   0.000000
    26  H    0.000030  -0.000049   0.000001   0.000000   0.000000   0.000000
    27  H   -0.001875   0.000524   0.000052  -0.000006   0.000000   0.000000
    28  H   -0.035267  -0.010120   0.000168  -0.000009   0.000000   0.000000
    29  H   -0.040854   0.362054  -0.038785  -0.004280   0.000024   0.000005
    30  H   -0.037976   0.353113  -0.028455   0.000053  -0.000347   0.000054
    31  H    0.000044  -0.009741  -0.046065   0.365403  -0.043359   0.004966
    32  H    0.000000  -0.000163   0.003811  -0.037741   0.366365  -0.041818
    33  H    0.000000   0.000007   0.000703   0.004913  -0.041913   0.368160
    34  H    0.000000  -0.000177   0.003687   0.000935   0.004643  -0.042107
    35  H    0.009187  -0.010112  -0.046420   0.005862   0.000369   0.004896
    36  H    0.000915  -0.000065  -0.000045   0.000001   0.000000   0.000000
    37  H    0.003035  -0.000174   0.000003   0.000000   0.000000   0.000000
    38  H    0.000083  -0.000002  -0.000001   0.000000   0.000000   0.000000
    39  H   -0.000031   0.000004   0.000000   0.000000   0.000000   0.000000
    40  H    0.000176  -0.000016   0.000000   0.000000   0.000000   0.000000
    41  H    0.010065   0.000308  -0.000058   0.000000   0.000000   0.000000
    42  H   -0.000005   0.000000   0.000000   0.000000   0.000000   0.000000
    43  H    0.000000   0.000000   0.000000   0.000000   0.000000   0.000000
    44  H    0.000000   0.000000   0.000000   0.000000   0.000000   0.000000
    45  H    0.000000   0.000000   0.000000   0.000000   0.000000   0.000000
    46  H    0.000000   0.000000   0.000000   0.000000   0.000000   0.000000
    47  H    0.000000   0.000000   0.000000   0.000000   0.000000   0.000000
    48  H    0.000000   0.000000   0.000000   0.000000   0.000000   0.000000
    49  H    0.000000   0.000000   0.000000   0.000000   0.000000   0.000000
             13         14         15         16         17         18
     1  C    0.000000   0.000000  -0.000313  -0.000010   0.000015   0.006491
     2  C    0.000000   0.000000   0.000686  -0.000118   0.001504  -0.031382
     3  O    0.000000   0.000000   0.000007  -0.000002  -0.000064  -0.006047
     4  N    0.000000   0.000000  -0.000839   0.003231  -0.034099   0.287901
     5  C    0.000000   0.000018  -0.064371  -0.066629   0.351040  -0.041452
     6  C    0.000005   0.000302   0.367937  -0.068752  -0.043516   0.001272
     7  O    0.000301   0.005052  -0.041085   0.000673  -0.004478  -0.000018
     8  C    0.005636  -0.058376   0.004928  -0.000075  -0.000196   0.000000
     9  C   -0.025638   0.519830  -0.000076   0.000008  -0.000060   0.000000
    10  C   -0.044961  -0.035976   0.000002   0.000000   0.000000   0.000000
    11  C   -0.031016  -0.045255   0.000000   0.000000   0.000000   0.000000
    12  C    0.545148  -0.037724   0.000000   0.000000   0.000000   0.000000
    13  C    4.832604   0.517024  -0.000001   0.000000   0.000000   0.000000
    14  C    0.517024   4.900613  -0.000081   0.000001   0.000003   0.000000
    15  C   -0.000001  -0.000081   4.999789   0.362364  -0.085124   0.000585
    16  C    0.000000   0.000001   0.362364   4.950956   0.370831  -0.005261
    17  C    0.000000   0.000003  -0.085124   0.370831   4.995975  -0.001250
    18  C    0.000000   0.000000   0.000585  -0.005261  -0.001250   5.093498
    19  C    0.000000   0.000000  -0.000003   0.000580  -0.004263   0.297199
    20  O    0.000000   0.000000  -0.000004   0.000028  -0.000255  -0.083631
    21  N    0.000000   0.000000   0.000000  -0.000004  -0.000535  -0.109655
    22  C    0.000000   0.000000   0.000000  -0.000001   0.000021  -0.000640
    23  C    0.000000   0.000000   0.000000   0.000000   0.000000   0.006280
    24  H    0.000000   0.000000  -0.000016   0.000001   0.000000  -0.000119
    25  H    0.000000   0.000000   0.000249  -0.000014   0.000090  -0.000261
    26  H    0.000000   0.000000   0.000264  -0.000009  -0.000014  -0.000144
    27  H    0.000000  -0.000004   0.006064   0.006119  -0.039000  -0.000591
    28  H   -0.000001  -0.000048  -0.043044   0.006051   0.006954  -0.000126
    29  H   -0.000115   0.007377  -0.000264   0.000020   0.000113   0.000008
    30  H   -0.000123  -0.008565   0.000306  -0.000018   0.000113   0.000000
    31  H    0.000397   0.006169   0.000000   0.000000   0.000000   0.000000
    32  H    0.004605   0.000832   0.000000   0.000000   0.000000   0.000000
    33  H   -0.041769   0.004677   0.000000   0.000000   0.000000   0.000000
[...]
    36  H    0.000000   0.000002  -0.000241  -0.000044   0.000042  -0.000053
    37  H    0.000000   0.000003  -0.000095  -0.003116   0.000013   0.000001
    38  H    0.000000   0.000000  -0.000190  -0.000092   0.000010   0.000000
    39  H    0.000000   0.000000  -0.000121  -0.000148  -0.000001   0.000001
    40  H   -0.000001   0.000002   0.001287  -0.000146  -0.000003   0.000001
    41  H   -0.000010   0.000003  -0.007835  -0.000054  -0.000114   0.000017
    42  H   -0.000005  -0.000007   0.000116  -0.000039   0.000000   0.000000
    43  H   -0.000003   0.000003  -0.000229  -0.000019   0.000000   0.000000
    44  H   -0.000002  -0.000005   0.000000   0.000000   0.000000   0.000000
    45  H    0.000000   0.000000   0.000000   0.000000   0.000000   0.000000
    46  H    0.000000   0.000000   0.000000   0.000000   0.000000   0.000000
    47  H    0.000000   0.000000   0.000000   0.000000   0.000000   0.000000
    48  H    0.000000   0.000000   0.000000   0.000000   0.000000   0.000000
    49  H    0.000000   0.000000   0.000000   0.000000   0.000000   0.000000
             31         32         33         34         35         36
     1  C   -0.000001   0.000000   0.000000   0.000000   0.000000   0.000000
     2  C    0.000000   0.000000   0.000000   0.000000   0.000000   0.000001
     3  O    0.000000   0.000000   0.000000   0.000000   0.000000   0.000000
     4  N    0.000000   0.000000   0.000000   0.000000   0.000000  -0.000078
     5  C   -0.000001   0.000000   0.000000   0.000000   0.000040   0.005456
     6  C   -0.000002   0.000000   0.000000   0.000000  -0.000321  -0.025571
     7  O    0.000060   0.000000   0.000000   0.000000   0.013851   0.000454
     8  C   -0.010419  -0.000175   0.000008  -0.000198  -0.012522  -0.000037
     9  C   -0.048481   0.003815   0.000696   0.003702  -0.043914  -0.000061
    10  C    0.365403  -0.038022   0.004858   0.001018   0.006297   0.000001
    11  C   -0.043305   0.366058  -0.041584   0.004513   0.000311   0.000000
    12  C    0.004939  -0.041538   0.368719  -0.041971   0.004726   0.000000
    13  C    0.000364   0.004522  -0.041708   0.366350  -0.043357   0.000002
    14  C    0.006320   0.000892   0.004600  -0.038368   0.367187  -0.000084
    15  C    0.000000   0.000000   0.000000   0.000000  -0.000078   0.368860
    16  C    0.000000   0.000000   0.000000   0.000000  -0.000014  -0.029592
    17  C    0.000000   0.000000   0.000000   0.000000   0.000000   0.004635
    18  C    0.000000   0.000000   0.000000   0.000000   0.000000  -0.000029
    19  C    0.000000   0.000000   0.000000   0.000000   0.000000  -0.000002
    20  O    0.000000   0.000000   0.000000   0.000000   0.000000   0.000000
    21  N    0.000000   0.000000   0.000000   0.000000   0.000000   0.000000
    22  C    0.000000   0.000000   0.000000   0.000000   0.000000   0.000000
    23  C    0.000000   0.000000   0.000000   0.000000   0.000000   0.000000
    24  H    0.000000   0.000000   0.000000   0.000000   0.000000   0.000000
    25  H    0.000001   0.000000   0.000000   0.000000   0.000000   0.000000
    26  H    0.000011   0.000000   0.000000   0.000000   0.000000   0.000002
    27  H   -0.000006   0.000000   0.000000   0.000000  -0.000002  -0.000241
    28  H    0.000000   0.000000   0.000000   0.000000  -0.000005  -0.000044
    29  H    0.006990  -0.000005   0.000000   0.000002   0.000512   0.000042
    30  H    0.000491   0.000003   0.000000   0.000002   0.000381  -0.000053
    31  H    0.647849  -0.006225  -0.000188   0.000018  -0.000167   0.000000
    32  H   -0.006225   0.631589  -0.006099  -0.000197   0.000017   0.000000
    33  H   -0.000188  -0.006099   0.632487  -0.006120  -0.000171   0.000000
    34  H    0.000018  -0.000197  -0.006120   0.631328  -0.005682   0.000000
    35  H   -0.000167   0.000017  -0.000171  -0.005682   0.615707   0.000731
    36  H    0.000000   0.000000   0.000000   0.000000   0.000731   0.599984
    37  H    0.000000   0.000000   0.000000   0.000000   0.000000  -0.030163
    38  H    0.000000   0.000000   0.000000   0.000000   0.000021  -0.007218
    39  H    0.000000   0.000000   0.000000   0.000000   0.000000   0.002805
    40  H    0.000000   0.000000   0.000000   0.000000   0.000000  -0.000093
    41  H    0.000000   0.000000   0.000000   0.000000  -0.000001  -0.000126
    42  H    0.000000   0.000000   0.000000   0.000000   0.000000   0.000130
    43  H    0.000000   0.000000   0.000000   0.000000   0.000000   0.000005
    44  H    0.000000   0.000000   0.000000   0.000000   0.000000   0.000000
    45  H    0.000000   0.000000   0.000000   0.000000   0.000000   0.000000
    46  H    0.000000   0.000000   0.000000   0.000000   0.000000   0.000000
    47  H    0.000000   0.000000   0.000000   0.000000   0.000000   0.000000
    48  H    0.000000   0.000000   0.000000   0.000000   0.000000   0.000000
    49  H    0.000000   0.000000   0.000000   0.000000   0.000000   0.000000
             37         38         39         40         41         42
     1  C   -0.000008   0.000000   0.000000   0.000010  -0.000006  -0.000114
     2  C    0.000046   0.000003   0.000005   0.000119   0.000032   0.006140
     3  O   -0.000007   0.000000   0.000000  -0.000013   0.000001   0.001148
     4  N   -0.000144  -0.000058   0.000513  -0.005034   0.003897  -0.033883
     5  C    0.002065   0.002779   0.002672  -0.031552  -0.030025  -0.004879
     6  C   -0.033943  -0.000554   0.004420   0.004301   0.001505  -0.000807
     7  O    0.003412   0.001635   0.000058   0.000081   0.002457  -0.000008
     8  C   -0.000191  -0.000068   0.000001  -0.000011   0.000230   0.000000
     9  C    0.000002  -0.000002   0.000000   0.000000  -0.000025   0.000000
    10  C    0.000000   0.000000   0.000000   0.000000   0.000001   0.000000
    11  C    0.000000   0.000000   0.000000   0.000000   0.000000   0.000000
    12  C    0.000000   0.000000   0.000000   0.000000   0.000000   0.000000
    13  C    0.000000   0.000000   0.000000   0.000000   0.000000   0.000000
    14  C    0.000001   0.000007   0.000000   0.000000   0.000000   0.000000
    15  C    0.370795  -0.031299  -0.033644   0.003626   0.002364  -0.000767
    16  C   -0.036525   0.384729   0.381092  -0.027925  -0.031697   0.001451
    17  C    0.001540  -0.027586  -0.035912   0.364632   0.376768  -0.002098
    18  C    0.001104   0.000134  -0.001704  -0.002744  -0.000156   0.371552
    19  C    0.000112  -0.000003   0.000126  -0.000088   0.000074  -0.031571
    20  O    0.000005  -0.000003   0.000038   0.029316   0.000147  -0.001733
    21  N    0.000001   0.000000   0.000001   0.000376   0.000000   0.001094
    22  C    0.000000   0.000000   0.000000  -0.000011   0.000000  -0.000038
    23  C    0.000000   0.000000   0.000000  -0.000004   0.000000  -0.000178
    24  H    0.000000   0.000000   0.000000   0.000001   0.000000   0.000002
    25  H    0.000000   0.000000   0.000000  -0.000001  -0.000010  -0.000005
    26  H    0.000003   0.000000   0.000000   0.000002   0.000003  -0.000007
    27  H   -0.000095  -0.000190  -0.000121   0.001287  -0.007835   0.000116
    28  H   -0.003116  -0.000092  -0.000148  -0.000146  -0.000054  -0.000039
    29  H    0.000013   0.000010  -0.000001  -0.000003  -0.000114   0.000000
    30  H    0.000001   0.000000   0.000001   0.000001   0.000017   0.000000
    31  H    0.000000   0.000000   0.000000   0.000000   0.000000   0.000000
    32  H    0.000000   0.000000   0.000000   0.000000   0.000000   0.000000
    33  H    0.000000   0.000000   0.000000   0.000000   0.000000   0.000000
    34  H    0.000000   0.000000   0.000000   0.000000   0.000000   0.000000
    35  H    0.000000   0.000021   0.000000   0.000000  -0.000001   0.000000
    36  H   -0.030163  -0.007218   0.002805  -0.000093  -0.000126   0.000130
    37  H    0.630158   0.005010  -0.010638   0.000028  -0.000147   0.000315
    38  H    0.005010   0.606410  -0.037165   0.002938  -0.011505  -0.000134
    39  H   -0.010638  -0.037165   0.629239  -0.007282   0.004456   0.003572
    40  H    0.000028   0.002938  -0.007282   0.539102  -0.024454  -0.000512
    41  H   -0.000147  -0.011505   0.004456  -0.024454   0.599304   0.000256
    42  H    0.000315  -0.000134   0.003572  -0.000512   0.000256   0.589491
    43  H    0.000597  -0.000001  -0.000008   0.000298  -0.000003  -0.030461
    44  H   -0.000002   0.000000   0.000000  -0.000002   0.000000   0.000139
    45  H    0.000000   0.000000   0.000000   0.000000   0.000000  -0.000022
    46  H    0.000000   0.000000   0.000000   0.000001   0.000000   0.000346
    47  H    0.000000   0.000000   0.000000   0.000000   0.000000  -0.000005
    48  H    0.000000   0.000000   0.000000  -0.000013   0.000000  -0.000018
    49  H    0.000000   0.000000   0.000000   0.000000   0.000000   0.000026
             43         44         45         46         47         48
     1  C   -0.000004   0.000216   0.000000   0.000000   0.000000   0.000000
     2  C   -0.007754  -0.000110   0.000005  -0.000008   0.000005  -0.000005
     3  O    0.004992   0.023665   0.000035   0.000184   0.000014   0.000000
     4  N   -0.036402  -0.000822   0.000003  -0.000065   0.000009  -0.000010
     5  C    0.004045  -0.000009   0.000000   0.000000   0.000000   0.000000
     6  C    0.000563   0.000000   0.000000   0.000000   0.000000   0.000000
     7  O   -0.000001   0.000000   0.000000   0.000000   0.000000   0.000000
     8  C    0.000000   0.000000   0.000000   0.000000   0.000000   0.000000
     9  C    0.000000   0.000000   0.000000   0.000000   0.000000   0.000000
    10  C    0.000000   0.000000   0.000000   0.000000   0.000000   0.000000
    11  C    0.000000   0.000000   0.000000   0.000000   0.000000   0.000000
    12  C    0.000000   0.000000   0.000000   0.000000   0.000000   0.000000
    13  C    0.000000   0.000000   0.000000   0.000000   0.000000   0.000000
    14  C    0.000000   0.000000   0.000000   0.000000   0.000000   0.000000
    15  C   -0.000305   0.000000   0.000000   0.000000   0.000000   0.000000
    16  C    0.000020   0.000000   0.000000   0.000000   0.000000   0.000000
    17  C   -0.000233   0.000000   0.000000   0.000000   0.000000   0.000002
    18  C    0.360262  -0.002386   0.000134  -0.001180  -0.000178   0.001011
    19  C   -0.032145  -0.003853   0.001514  -0.001057  -0.000423  -0.003744
    20  O    0.003508   0.000071  -0.000075  -0.000028   0.000613   0.021679
    21  N    0.001417  -0.033121  -0.034537  -0.045594  -0.042571  -0.035896
    22  C    0.002824   0.374919   0.385509   0.379158  -0.002816   0.004627
    23  C   -0.000167   0.003081  -0.005189   0.001553   0.388030   0.385107
    24  H   -0.000004  -0.000004   0.000000   0.000000   0.000000   0.000000
    25  H   -0.000003  -0.000002   0.000000   0.000000   0.000000   0.000000
    26  H    0.000003  -0.000005   0.000000   0.000000   0.000000   0.000000
    27  H   -0.000229   0.000000   0.000000   0.000000   0.000000   0.000000
    28  H   -0.000019   0.000000   0.000000   0.000000   0.000000   0.000000
    29  H    0.000000   0.000000   0.000000   0.000000   0.000000   0.000000
    30  H    0.000000   0.000000   0.000000   0.000000   0.000000   0.000000
    31  H    0.000000   0.000000   0.000000   0.000000   0.000000   0.000000
    32  H    0.000000   0.000000   0.000000   0.000000   0.000000   0.000000
    33  H    0.000000   0.000000   0.000000   0.000000   0.000000   0.000000
    34  H    0.000000   0.000000   0.000000   0.000000   0.000000   0.000000
    35  H    0.000000   0.000000   0.000000   0.000000   0.000000   0.000000
    36  H    0.000005   0.000000   0.000000   0.000000   0.000000   0.000000
    37  H    0.000597  -0.000002   0.000000   0.000000   0.000000   0.000000
    38  H   -0.000001   0.000000   0.000000   0.000000   0.000000   0.000000
    39  H   -0.000008   0.000000   0.000000   0.000000   0.000000   0.000000
    40  H    0.000298  -0.000002   0.000000   0.000001   0.000000  -0.000013
    41  H   -0.000003   0.000000   0.000000   0.000000   0.000000   0.000000
    42  H   -0.030461   0.000139  -0.000022   0.000346  -0.000005  -0.000018
    43  H    0.609206  -0.000385   0.000159   0.000526  -0.000001  -0.000048
    44  H   -0.000385   0.521161  -0.019705  -0.034560   0.000512  -0.000221
    45  H    0.000159  -0.019705   0.593586  -0.039830   0.004984   0.000086
    46  H    0.000526  -0.034560  -0.039830   0.630302  -0.000625  -0.000137
    47  H   -0.000001   0.000512   0.004984  -0.000625   0.605740  -0.028277
    48  H   -0.000048  -0.000221   0.000086  -0.000137  -0.028277   0.523370
    49  H   -0.000018  -0.000151  -0.001786   0.002417  -0.044149  -0.023424
             49
     1  C    0.000000
     2  C    0.000000
     3  O   -0.000001
     4  N   -0.000001
     5  C    0.000000
     6  C    0.000000
     7  O    0.000000
     8  C    0.000000
     9  C    0.000000
    10  C    0.000000
    11  C    0.000000
    12  C    0.000000
    13  C    0.000000
    14  C    0.000000
    15  C    0.000000
    16  C    0.000000
    17  C    0.000000
    18  C   -0.000122
    19  C    0.002929
    20  O    0.000741
    21  N   -0.045408
    22  C   -0.001063
    23  C    0.384102
    24  H    0.000000
    25  H    0.000000
    26  H    0.000000
    27  H    0.000000
    28  H    0.000000
    29  H    0.000000
    30  H    0.000000
    31  H    0.000000
    32  H    0.000000
    33  H    0.000000
    34  H    0.000000
    35  H    0.000000
    36  H    0.000000
    37  H    0.000000
    38  H    0.000000
    39  H    0.000000
    40  H    0.000000
    41  H    0.000000
    42  H    0.000026
    43  H   -0.000018
    44  H   -0.000151
    45  H   -0.001786
    46  H    0.002417
    47  H   -0.044149
    48  H   -0.023424
    49  H    0.617471
 Mulliken atomic charges:
              1
     1  C   -0.412393
     2  C    0.577318
     3  O   -0.525216
     4  N   -0.427057
     5  C    0.039503
     6  C    0.188903
     7  O   -0.507397
     8  C    0.039275
     9  C    0.068342
    10  C   -0.119300
    11  C   -0.086060
    12  C   -0.083487
    13  C   -0.089471
    14  C   -0.098815
    15  C   -0.203223
    16  C   -0.196978
    17  C   -0.222666
    18  C   -0.126774
    19  C    0.604735
    20  O   -0.528034
    21  N   -0.435128
    22  C   -0.193480
    23  C   -0.181954
    24  H    0.142954
    25  H    0.139510
    26  H    0.123968
    27  H    0.106439
    28  H    0.075044
    29  H    0.086522
    30  H    0.098304
    31  H    0.076347
    32  H    0.085366
    33  H    0.084502
    34  H    0.085603
    35  H    0.096452
    36  H    0.110285
    37  H    0.099772
    38  H    0.112201
    39  H    0.097624
    40  H    0.153769
    41  H    0.114647
    42  H    0.131503
    43  H    0.119763
    44  H    0.171574
    45  H    0.115128
    46  H    0.108597
    47  H    0.119138
    48  H    0.155911
    49  H    0.108437
 Sum of Mulliken atomic charges =   0.00000
 Mulliken charges with hydrogens summed into heavy atoms:
              1
     1  C   -0.005962
     2  C    0.577318
     3  O   -0.525216
     4  N   -0.427057
     5  C    0.145942
     6  C    0.263947
     7  O   -0.507397
     8  C    0.224100
     9  C    0.068342
    10  C   -0.042953
    11  C   -0.000694
    12  C    0.001015
    13  C   -0.003869
    14  C   -0.002363
    15  C    0.006834
    16  C    0.012846
    17  C    0.045750
    18  C    0.124492
    19  C    0.604735
    20  O   -0.528034
    21  N   -0.435128
    22  C    0.201819
    23  C    0.201532
 Sum of Mulliken charges with hydrogens summed into heavy atoms =   0.00000
 Electronic spatial extent (au):  <R**2>=          11125.7113
 Charge=              0.0000 electrons
 Dipole moment (field-independent basis, Debye):
    X=             -0.4553    Y=              0.3986    Z=              1.8855  Tot=              1.9803
 Quadrupole moment (field-independent basis, Debye-Ang):
   XX=           -123.4921   YY=           -135.9200   ZZ=           -140.9186
   XY=              7.4805   XZ=              7.4939   YZ=              6.7905
 Traceless Quadrupole moment (field-independent basis, Debye-Ang):
   XX=              9.9515   YY=             -2.4765   ZZ=             -7.4750
   XY=              7.4805   XZ=              7.4939   YZ=              6.7905
 Octapole moment (field-independent basis, Debye-Ang**2):
  XXX=            100.6236  YYY=              2.7832  ZZZ=              9.5630  XYY=            -14.8114
  XXY=             20.3029  XXZ=              4.8423  XZZ=              8.7672  YZZ=             -3.2099
  YYZ=             -7.3665  XYZ=             -2.1018
 Hexadecapole moment (field-independent basis, Debye-Ang**3):
 XXXX=         -11104.1632 YYYY=          -1576.8315 ZZZZ=           -729.3686 XXXY=            -37.0908
 XXXZ=            152.2899 YYYX=             16.4084 YYYZ=             18.7908 ZZZX=              9.3989
 ZZZY=              0.0700 XXYY=          -2377.9658 XXZZ=          -2284.0182 YYZZ=           -381.8034
 XXYZ=            117.6175 YYXZ=            -16.4834 ZZXY=             -2.7683
 N-N= 1.970187007937D+03 E-N=-6.351312253364D+03  KE= 1.027017313535D+03
 1\1\GINC-C01\FOpt\RB3LYP\6-31G(d,p)\C18H26N2O3\TUU61186\09-Apr-2026\0\
 \# opt b3lyp/6-31g(d,p)\\QM dihedral opt\\0,1\C,1.2929780979,-2.139255
 6396,1.4471018516\C,-0.1366122031,-2.5880698908,1.1901794382\O,-0.9924
 533366,-2.465829773,2.0684213391\N,-0.4569104058,-3.1190417164,-0.0351
 629409\C,0.5281654688,-3.3078019354,-1.1198863592\C,1.1582885598,-4.73
 25932586,-1.1162681215\O,2.3898491949,-4.7351392778,-1.8373496308\C,3.
 5218923084,-4.293949248,-1.1056893417\C,4.782883024,-4.5627087165,-1.8
 961748768\C,5.8969021984,-3.7307418199,-1.7397843794\C,7.085613972,-3.
 9987807036,-2.4193784662\C,7.1688900266,-5.0990989819,-3.2736126323\C,
 6.0580528217,-5.9280344182,-3.4410554091\C,4.873088187,-5.6645422945,-
 2.7541095816\C,0.1714360602,-5.576174739,-1.9268089651\C,-0.3411380233
 ,-4.6328847898,-3.0444111932\C,-0.0582052586,-3.1840790208,-2.54683855
 69\C,-1.868157659,-3.4783005391,-0.1883313\C,-2.7688763094,-2.23831292
 92,-0.3597286576\O,-2.4908420033,-1.4171585451,-1.2340112362\N,-3.9004
 765876,-2.1516493952,0.3988933537\C,-4.1578269958,-2.9535701914,1.5944
 933156\C,-4.8465762544,-1.0791027784,0.1132557614\H,1.3486468457,-1.82
 88021591,2.489892175\H,1.5611130921,-1.2880887807,0.8120455456\H,2.022
 0923726,-2.9344387185,1.2680216717\H,1.3040956131,-2.5571156188,-0.972
 5014571\H,1.3177922458,-5.1120815646,-0.0954528063\H,3.4591375096,-3.2
 201631621,-0.8699682802\H,3.564317009,-4.8280496432,-0.1393211539\H,5.
 8340800277,-2.8649012198,-1.0845336227\H,7.9416786638,-3.3430211618,-2
 .2890069545\H,8.0909091845,-5.3059631373,-3.8090736883\H,6.1140423817,
 -6.7829680093,-4.1090269347\H,4.0047731566,-6.3003316082,-2.8874112035
 \H,0.6558095151,-6.4793331874,-2.306812836\H,-0.6470109328,-5.89482623
 07,-1.2722335261\H,0.1922768291,-4.8242325583,-3.9790105389\H,-1.40373
 10135,-4.7971106096,-3.2513609251\H,-0.9313248581,-2.5289172335,-2.552
 1421131\H,0.7020171241,-2.7206319499,-3.1804014296\H,-1.9887540912,-4.
 0537224205,-1.1060689326\H,-2.1692788443,-4.1125046807,0.6445909536\H,
 -3.2281135363,-3.1370354338,2.1334950461\H,-4.8158376169,-2.3823566289
 ,2.2543186043\H,-4.6601202752,-3.9015107494,1.360654007\H,-4.809089216
 ,-0.3042114957,0.8894060107\H,-4.5866654531,-0.6310389518,-0.843981672
 4\H,-5.865110616,-1.4808824847,0.0720606499\\Version=EM64L-G09RevC.01\
 State=1-A\HF=-1036.791324\RMSD=8.513e-09\RMSF=6.686e-06\Dipole=0.04156
 88,-0.7500926,0.2064558\Quadrupole=11.0323013,-3.9167572,-7.1155442,5.
 2379243,-2.5700253,2.0214537\PG=C01 [X(C18H26N2O3)]\\@


 "ANNA, YOU MUSN'T SPEAK OF OXIDIZED MURIATIC ACID
 ANYMORE, FROM NOW ON YOU MUST SAY CHLORINE."
   -- JENS JACOB BERZELIUS, IN 1820, TO HIS COOK, WHO HAD
 COMPLAINED OF THE SMELL OF THE FLASK SHE WAS CLEANING.
 Job cpu time:  0 days  6 hours 38 minutes 50.0 seconds.
 File lengths (MBytes):  RWF=    148 Int=      0 D2E=      0 Chk=     17 Scr=      1
 Normal termination of Gaussian 09 at Thu Apr  9 16:10:03 2026.
