 Entering Gaussian System, Link 0=/data/opt/apps/g09-C01/g09
 Initial command:
 /data/opt/apps/g09-C01/l1.exe /tmp/g09-tuu61186-192609264c2b16c9fx/Gau-1926128.inp -scrdir=/tmp/g09-tuu61186-192609264c2b16c9fx/
 Entering Link 1 = /data/opt/apps/g09-C01/l1.exe PID=   1926129.
  
 Copyright (c) 1988,1990,1992,1993,1995,1998,2003,2009,2011,
            Gaussian, Inc.  All Rights Reserved.
  
 This is part of the Gaussian(R) 09 program.  It is based on
 the Gaussian(R) 03 system (copyright 2003, Gaussian, Inc.),
 the Gaussian(R) 98 system (copyright 1998, Gaussian, Inc.),
 the Gaussian(R) 94 system (copyright 1995, Gaussian, Inc.),
 the Gaussian 92(TM) system (copyright 1992, Gaussian, Inc.),
 the Gaussian 90(TM) system (copyright 1990, Gaussian, Inc.),
 the Gaussian 88(TM) system (copyright 1988, Gaussian, Inc.),
 the Gaussian 86(TM) system (copyright 1986, Carnegie Mellon
 University), and the Gaussian 82(TM) system (copyright 1983,
 Carnegie Mellon University). Gaussian is a federally registered
 trademark of Gaussian, Inc.
  
 This software contains proprietary and confidential information,
 including trade secrets, belonging to Gaussian, Inc.
  
 This software is provided under written license and may be
 used, copied, transmitted, or stored only in accord with that
 written license.
  
 The following legend is applicable only to US Government
 contracts under FAR:
  
                    RESTRICTED RIGHTS LEGEND
  
 Use, reproduction and disclosure by the US Government is
 subject to restrictions as set forth in subparagraphs (a)
 and (c) of the Commercial Computer Software - Restricted
 Rights clause in FAR 52.227-19.
  
 Gaussian, Inc.
 340 Quinnipiac St., Bldg. 40, Wallingford CT 06492
  
  
 ---------------------------------------------------------------
 Warning -- This program may not be used in any manner that
 competes with the business of Gaussian, Inc. or will provide
 assistance to any competitor of Gaussian, Inc.  The licensee
 of this program is prohibited from giving any competitor of
 Gaussian, Inc. access to this program.  By using this program,
 the user acknowledges that Gaussian, Inc. is engaged in the
 business of creating and licensing software in the field of
 computational chemistry and represents and warrants to the
 licensee that it is not a competitor of Gaussian, Inc. and that
 it will not use this program in any manner prohibited above.
 ---------------------------------------------------------------
  

 Cite this work as:
 Gaussian 09, Revision C.01,
 M. J. Frisch, G. W. Trucks, H. B. Schlegel, G. E. Scuseria, 
 M. A. Robb, J. R. Cheeseman, G. Scalmani, V. Barone, B. Mennucci, 
 G. A. Petersson, H. Nakatsuji, M. Caricato, X. Li, H. P. Hratchian, 
 A. F. Izmaylov, J. Bloino, G. Zheng, J. L. Sonnenberg, M. Hada, 
 M. Ehara, K. Toyota, R. Fukuda, J. Hasegawa, M. Ishida, T. Nakajima, 
 Y. Honda, O. Kitao, H. Nakai, T. Vreven, J. A. Montgomery, Jr., 
 J. E. Peralta, F. Ogliaro, M. Bearpark, J. J. Heyd, E. Brothers, 
 K. N. Kudin, V. N. Staroverov, T. Keith, R. Kobayashi, J. Normand, 
 K. Raghavachari, A. Rendell, J. C. Burant, S. S. Iyengar, J. Tomasi, 
 M. Cossi, N. Rega, J. M. Millam, M. Klene, J. E. Knox, J. B. Cross, 
 V. Bakken, C. Adamo, J. Jaramillo, R. Gomperts, R. E. Stratmann, 
 O. Yazyev, A. J. Austin, R. Cammi, C. Pomelli, J. W. Ochterski, 
 R. L. Martin, K. Morokuma, V. G. Zakrzewski, G. A. Voth, 
 P. Salvador, J. J. Dannenberg, S. Dapprich, A. D. Daniels, 
 O. Farkas, J. B. Foresman, J. V. Ortiz, J. Cioslowski, 
 and D. J. Fox, Gaussian, Inc., Wallingford CT, 2010.
 
 ******************************************
 Gaussian 09:  EM64L-G09RevC.01 23-Sep-2011
                18-Apr-2026 
 ******************************************
 %nprocshared=8
 Will use up to    8 processors via shared memory.
 %mem=14GB
 ----------------------
 # opt b3lyp/6-31g(d,p)
 ----------------------
 1/14=-1,18=20,19=15,26=3,38=1/1,3;
 2/9=110,12=2,17=6,18=5,40=1/2;
 3/5=1,6=6,7=101,11=2,16=1,25=1,30=1,71=1,74=-5/1,2,3;
 4//1;
 5/5=2,38=5/2;
 6/7=2,8=2,9=2,10=2,28=1/1;
 7//1,2,3,16;
 1/14=-1,18=20,19=15/3(2);
 2/9=110/2;
 99//99;
 2/9=110/2;
 3/5=1,6=6,7=101,11=2,16=1,25=1,30=1,71=1,74=-5/1,2,3;
 4/5=5,16=3/1;
 5/5=2,38=5/2;
 7//1,2,3,16;
 1/14=-1,18=20,19=15/3(-5);
 2/9=110/2;
 6/7=2,8=2,9=2,10=2,19=2,28=1/1;
 99/9=1/99;
 ---------------
 QM dihedral opt
 ---------------
 Charge =  0 Multiplicity = 1
 Symbolic Z-Matrix:
 C                     3.31478  -0.16116  -0.93045 
 C                     2.13588   0.24298  -0.06186 
 O                     1.88457   1.42065   0.18117 
 N                     1.39479  -0.78901   0.44366 
 C                     0.16007  -0.54709   1.17383 
 C                    -1.05587  -0.74583   0.25489 
 O                    -1.2857   -1.88605  -0.14934 
 N                    -1.82327   0.33408  -0.07688 
 C                    -1.529     1.72119   0.27685 
 C                    -3.03337   0.11314  -0.85981 
 H                     4.21      0.34293  -0.55888 
 H                     3.1398    0.19359  -1.95042 
 H                     3.49277  -1.23928  -0.95428 
 H                     0.06174  -1.29756   1.96344 
 H                     0.23942   0.43554   1.63239 
 H                    -0.45785   1.88108   0.40346 
 H                    -1.85911   2.36387  -0.54509 
 H                    -2.06485   2.03478   1.183 
 H                    -2.95717   0.60471  -1.83744 
 H                    -3.16049  -0.95813  -1.00464 
 H                    -3.90469   0.52274  -0.33488 
 C                     1.56826  -2.13808  -0.11384 
 H                     2.59322  -2.43193  -0.02428 
 H                     0.95124  -2.82794   0.42308 
 C                     1.16289  -2.13561  -1.59952 
 H                     2.0115   -2.38613  -2.20119 
 H                     0.80791  -1.16333  -1.87075 
 O                     0.12677  -3.09789  -1.81251 
 C                     0.51714  -3.99714  -2.85359 
 H                    -0.28615  -4.67286  -3.06105 
 H                     0.75179  -3.44021  -3.73658 
 H                     1.37789  -4.55124  -2.54214 
 

 GradGradGradGradGradGradGradGradGradGradGradGradGradGradGradGradGradGrad
 Berny optimization.
 Initialization pass.
                           ----------------------------
                           !    Initial Parameters    !
                           ! (Angstroms and Degrees)  !
 --------------------------                            --------------------------
 ! Name  Definition              Value          Derivative Info.                !
 --------------------------------------------------------------------------------
 ! R1    R(1,2)                  1.5191         estimate D2E/DX2                !
 ! R2    R(1,11)                 1.0925         estimate D2E/DX2                !
 ! R3    R(1,12)                 1.094          estimate D2E/DX2                !
 ! R4    R(1,13)                 1.093          estimate D2E/DX2                !
 ! R5    R(2,3)                  1.2285         estimate D2E/DX2                !
 ! R6    R(2,4)                  1.3674         estimate D2E/DX2                !
 ! R7    R(4,5)                  1.4547         estimate D2E/DX2                !
 ! R8    R(4,22)                 1.47           estimate D2E/DX2                !
 ! R9    R(5,6)                  1.537          estimate D2E/DX2                !
 ! R10   R(5,14)                 1.0938         estimate D2E/DX2                !
 ! R11   R(5,15)                 1.0873         estimate D2E/DX2                !
 ! R12   R(6,7)                  1.2314         estimate D2E/DX2                !
 ! R13   R(6,8)                  1.3657         estimate D2E/DX2                !
 ! R14   R(8,9)                  1.4614         estimate D2E/DX2                !
 ! R15   R(8,10)                 1.4581         estimate D2E/DX2                !
 ! R16   R(9,16)                 1.0904         estimate D2E/DX2                !
 ! R17   R(9,17)                 1.0943         estimate D2E/DX2                !
 ! R18   R(9,18)                 1.0984         estimate D2E/DX2                !
 ! R19   R(10,19)                1.0969         estimate D2E/DX2                !
 ! R20   R(10,20)                1.0885         estimate D2E/DX2                !
 ! R21   R(10,21)                1.0966         estimate D2E/DX2                !
 ! R22   R(22,23)                1.07           estimate D2E/DX2                !
 ! R23   R(22,24)                1.07           estimate D2E/DX2                !
 ! R24   R(22,25)                1.54           estimate D2E/DX2                !
 ! R25   R(25,26)                1.07           estimate D2E/DX2                !
 ! R26   R(25,27)                1.07           estimate D2E/DX2                !
 ! R27   R(25,28)                1.43           estimate D2E/DX2                !
 ! R28   R(28,29)                1.43           estimate D2E/DX2                !
 ! R29   R(29,30)                1.07           estimate D2E/DX2                !
 ! R30   R(29,31)                1.07           estimate D2E/DX2                !
 ! R31   R(29,32)                1.07           estimate D2E/DX2                !
 ! A1    A(2,1,11)             108.5839         estimate D2E/DX2                !
 ! A2    A(2,1,12)             108.8262         estimate D2E/DX2                !
 ! A3    A(2,1,13)             113.6577         estimate D2E/DX2                !
 ! A4    A(11,1,12)            107.3703         estimate D2E/DX2                !
 ! A5    A(11,1,13)            109.2147         estimate D2E/DX2                !
 ! A6    A(12,1,13)            109.0011         estimate D2E/DX2                !
 ! A7    A(1,2,3)              121.7981         estimate D2E/DX2                !
 ! A8    A(1,2,4)              115.5445         estimate D2E/DX2                !
 ! A9    A(3,2,4)              122.6488         estimate D2E/DX2                !
 ! A10   A(2,4,5)              121.3366         estimate D2E/DX2                !
 ! A11   A(2,4,22)             119.2394         estimate D2E/DX2                !
 ! A12   A(5,4,22)             116.3046         estimate D2E/DX2                !
 ! A13   A(4,5,6)              110.4789         estimate D2E/DX2                !
 ! A14   A(4,5,14)             108.9379         estimate D2E/DX2                !
 ! A15   A(4,5,15)             107.4603         estimate D2E/DX2                !
 ! A16   A(6,5,14)             105.7699         estimate D2E/DX2                !
 ! A17   A(6,5,15)             115.2617         estimate D2E/DX2                !
 ! A18   A(14,5,15)            108.7954         estimate D2E/DX2                !
 ! A19   A(5,6,7)              117.6226         estimate D2E/DX2                !
 ! A20   A(5,6,8)              119.1775         estimate D2E/DX2                !
 ! A21   A(7,6,8)              123.1998         estimate D2E/DX2                !
 ! A22   A(6,8,9)              125.3498         estimate D2E/DX2                !
 ! A23   A(6,8,10)             118.4865         estimate D2E/DX2                !
 ! A24   A(9,8,10)             116.1605         estimate D2E/DX2                !
 ! A25   A(8,9,16)             111.4129         estimate D2E/DX2                !
 ! A26   A(8,9,17)             108.3535         estimate D2E/DX2                !
 ! A27   A(8,9,18)             111.8637         estimate D2E/DX2                !
 ! A28   A(16,9,17)            107.3034         estimate D2E/DX2                !
 ! A29   A(16,9,18)            109.9725         estimate D2E/DX2                !
 ! A30   A(17,9,18)            107.7447         estimate D2E/DX2                !
 ! A31   A(8,10,19)            110.6707         estimate D2E/DX2                !
 ! A32   A(8,10,20)            108.5113         estimate D2E/DX2                !
 ! A33   A(8,10,21)            110.2298         estimate D2E/DX2                !
 ! A34   A(19,10,20)           109.3045         estimate D2E/DX2                !
 ! A35   A(19,10,21)           108.3275         estimate D2E/DX2                !
 ! A36   A(20,10,21)           109.7866         estimate D2E/DX2                !
 ! A37   A(4,22,23)            109.4712         estimate D2E/DX2                !
 ! A38   A(4,22,24)            109.4712         estimate D2E/DX2                !
 ! A39   A(4,22,25)            109.4712         estimate D2E/DX2                !
 ! A40   A(23,22,24)           109.4712         estimate D2E/DX2                !
 ! A41   A(23,22,25)           109.4713         estimate D2E/DX2                !
 ! A42   A(24,22,25)           109.4712         estimate D2E/DX2                !
 ! A43   A(22,25,26)           109.4712         estimate D2E/DX2                !
 ! A44   A(22,25,27)           109.4712         estimate D2E/DX2                !
 ! A45   A(22,25,28)           109.4712         estimate D2E/DX2                !
 ! A46   A(26,25,27)           109.4712         estimate D2E/DX2                !
 ! A47   A(26,25,28)           109.4713         estimate D2E/DX2                !
 ! A48   A(27,25,28)           109.4712         estimate D2E/DX2                !
 ! A49   A(25,28,29)           109.5            estimate D2E/DX2                !
 ! A50   A(28,29,30)           109.4712         estimate D2E/DX2                !
 ! A51   A(28,29,31)           109.4712         estimate D2E/DX2                !
 ! A52   A(28,29,32)           109.4712         estimate D2E/DX2                !
 ! A53   A(30,29,31)           109.4713         estimate D2E/DX2                !
 ! A54   A(30,29,32)           109.4712         estimate D2E/DX2                !
 ! A55   A(31,29,32)           109.4712         estimate D2E/DX2                !
 ! D1    D(11,1,2,3)            50.7314         estimate D2E/DX2                !
 ! D2    D(11,1,2,4)          -128.2253         estimate D2E/DX2                !
 ! D3    D(12,1,2,3)           -65.8459         estimate D2E/DX2                !
 ! D4    D(12,1,2,4)           115.1974         estimate D2E/DX2                !
 ! D5    D(13,1,2,3)           172.4918         estimate D2E/DX2                !
 ! D6    D(13,1,2,4)            -6.4649         estimate D2E/DX2                !
 ! D7    D(1,2,4,5)           -173.5014         estimate D2E/DX2                !
 ! D8    D(1,2,4,22)           -14.2041         estimate D2E/DX2                !
 ! D9    D(3,2,4,5)              7.5516         estimate D2E/DX2                !
 ! D10   D(3,2,4,22)           166.849          estimate D2E/DX2                !
 ! D11   D(2,4,5,6)             98.8685         estimate D2E/DX2                !
 ! D12   D(2,4,5,14)          -145.3555         estimate D2E/DX2                !
 ! D13   D(2,4,5,15)           -27.6451         estimate D2E/DX2                !
 ! D14   D(22,4,5,6)           -61.0042         estimate D2E/DX2                !
 ! D15   D(22,4,5,14)           54.7718         estimate D2E/DX2                !
 ! D16   D(22,4,5,15)          172.4821         estimate D2E/DX2                !
 ! D17   D(2,4,22,23)           57.3554         estimate D2E/DX2                !
 ! D18   D(2,4,22,24)          177.3554         estimate D2E/DX2                !
 ! D19   D(2,4,22,25)          -62.6446         estimate D2E/DX2                !
 ! D20   D(5,4,22,23)         -142.3283         estimate D2E/DX2                !
 ! D21   D(5,4,22,24)          -22.3283         estimate D2E/DX2                !
 ! D22   D(5,4,22,25)           97.6717         estimate D2E/DX2                !
 ! D23   D(4,5,6,7)             67.1323         estimate D2E/DX2                !
 ! D24   D(4,5,6,8)           -112.7217         estimate D2E/DX2                !
 ! D25   D(14,5,6,7)           -50.6074         estimate D2E/DX2                !
 ! D26   D(14,5,6,8)           129.5386         estimate D2E/DX2                !
 ! D27   D(15,5,6,7)          -170.8362         estimate D2E/DX2                !
 ! D28   D(15,5,6,8)             9.3099         estimate D2E/DX2                !
 ! D29   D(5,6,8,9)              5.559          estimate D2E/DX2                !
 ! D30   D(5,6,8,10)          -175.1187         estimate D2E/DX2                !
 ! D31   D(7,6,8,9)           -174.2863         estimate D2E/DX2                !
 ! D32   D(7,6,8,10)             5.036          estimate D2E/DX2                !
 ! D33   D(6,8,9,16)            27.1806         estimate D2E/DX2                !
 ! D34   D(6,8,9,17)           145.0013         estimate D2E/DX2                !
 ! D35   D(6,8,9,18)           -96.3709         estimate D2E/DX2                !
 ! D36   D(10,8,9,16)         -152.1557         estimate D2E/DX2                !
 ! D37   D(10,8,9,17)          -34.335          estimate D2E/DX2                !
 ! D38   D(10,8,9,18)           84.2927         estimate D2E/DX2                !
 ! D39   D(6,8,10,19)         -116.2309         estimate D2E/DX2                !
 ! D40   D(6,8,10,20)            3.6986         estimate D2E/DX2                !
 ! D41   D(6,8,10,21)          123.9532         estimate D2E/DX2                !
 ! D42   D(9,8,10,19)           63.1533         estimate D2E/DX2                !
 ! D43   D(9,8,10,20)         -176.9172         estimate D2E/DX2                !
 ! D44   D(9,8,10,21)          -56.6626         estimate D2E/DX2                !
 ! D45   D(4,22,25,26)         117.5124         estimate D2E/DX2                !
 ! D46   D(4,22,25,27)          -2.4876         estimate D2E/DX2                !
 ! D47   D(4,22,25,28)        -122.4876         estimate D2E/DX2                !
 ! D48   D(23,22,25,26)         -2.4876         estimate D2E/DX2                !
 ! D49   D(23,22,25,27)       -122.4876         estimate D2E/DX2                !
 ! D50   D(23,22,25,28)        117.5124         estimate D2E/DX2                !
 ! D51   D(24,22,25,26)       -122.4876         estimate D2E/DX2                !
 ! D52   D(24,22,25,27)        117.5124         estimate D2E/DX2                !
 ! D53   D(24,22,25,28)         -2.4876         estimate D2E/DX2                !
 ! D54   D(22,25,28,29)       -125.6686         estimate D2E/DX2                !
 ! D55   D(26,25,28,29)         -5.6687         estimate D2E/DX2                !
 ! D56   D(27,25,28,29)        114.3314         estimate D2E/DX2                !
 ! D57   D(25,28,29,30)       -175.9584         estimate D2E/DX2                !
 ! D58   D(25,28,29,31)        -55.9584         estimate D2E/DX2                !
 ! D59   D(25,28,29,32)         64.0416         estimate D2E/DX2                !
 --------------------------------------------------------------------------------
 Trust Radius=3.00D-01 FncErr=1.00D-07 GrdErr=1.00D-06
 Number of steps in this run=    155 maximum allowed number of steps=    192.
 GradGradGradGradGradGradGradGradGradGradGradGradGradGradGradGradGradGrad

                          Input orientation:                          
 ---------------------------------------------------------------------
 Center     Atomic      Atomic             Coordinates (Angstroms)
 Number     Number       Type             X           Y           Z
 ---------------------------------------------------------------------
      1          6           0        3.314784   -0.161156   -0.930453
      2          6           0        2.135881    0.242982   -0.061863
      3          8           0        1.884566    1.420647    0.181173
      4          7           0        1.394786   -0.789009    0.443660
      5          6           0        0.160067   -0.547089    1.173830
      6          6           0       -1.055869   -0.745831    0.254885
      7          8           0       -1.285700   -1.886051   -0.149344
      8          7           0       -1.823274    0.334076   -0.076882
      9          6           0       -1.528996    1.721191    0.276846
     10          6           0       -3.033375    0.113139   -0.859810
     11          1           0        4.210001    0.342934   -0.558878
     12          1           0        3.139798    0.193590   -1.950419
     13          1           0        3.492771   -1.239275   -0.954281
     14          1           0        0.061744   -1.297564    1.963440
     15          1           0        0.239419    0.435544    1.632393
     16          1           0       -0.457848    1.881076    0.403463
     17          1           0       -1.859107    2.363874   -0.545085
     18          1           0       -2.064853    2.034777    1.182996
     19          1           0       -2.957172    0.604709   -1.837437
     20          1           0       -3.160492   -0.958129   -1.004637
     21          1           0       -3.904693    0.522738   -0.334879
     22          6           0        1.568265   -2.138084   -0.113835
     23          1           0        2.593221   -2.431929   -0.024279
     24          1           0        0.951236   -2.827940    0.423077
     25          6           0        1.162893   -2.135608   -1.599523
     26          1           0        2.011500   -2.386135   -2.201189
     27          1           0        0.807911   -1.163331   -1.870750
     28          8           0        0.126772   -3.097891   -1.812512
     29          6           0        0.517144   -3.997144   -2.853595
     30          1           0       -0.286146   -4.672856   -3.061051
     31          1           0        0.751787   -3.440207   -3.736581
     32          1           0        1.377888   -4.551236   -2.542144
 ---------------------------------------------------------------------
                    Distance matrix (angstroms):
                    1          2          3          4          5
     1  C    0.000000
     2  C    1.519075   0.000000
     3  O    2.404857   1.228463   0.000000
     4  N    2.443108   1.367399   2.278456   0.000000
     5  C    3.811718   2.460689   2.798437   1.454718   0.000000
     6  C    4.566123   3.356389   3.653111   2.458294   1.537029
     7  O    4.974922   4.030838   4.592829   2.956376   2.373573
     8  N    5.231967   3.960231   3.872377   3.447926   2.504870
     9  C    5.335073   3.966251   3.428102   3.857127   2.966919
    10  C    6.354475   5.232092   5.194167   4.703351   3.843132
    11  H    1.092515   2.135179   2.667731   3.195593   4.494039
    12  H    1.093981   2.139377   2.761333   3.121247   4.380449
    13  H    1.092972   2.198783   3.309194   2.560961   4.014336
    14  H    4.499812   3.282861   3.726637   2.084553   1.093784
    15  H    4.047481   2.550324   2.404782   2.060944   1.087265
    16  H    4.492527   3.102791   2.397564   3.250111   2.621311
    17  H    5.770046   4.548804   3.928386   4.637468   3.937695
    18  H    6.182983   4.733537   4.120524   4.526531   3.408282
    19  H    6.383306   5.405802   5.308763   5.107386   4.484590
    20  H    6.524559   5.512083   5.702397   4.782962   3.992591
    21  H    7.276212   6.053209   5.881162   5.514642   4.465759
    22  C    2.761420   2.448340   3.584919   1.470000   2.484425
    23  H    2.549159   2.713986   3.922594   2.086720   3.302775
    24  H    3.811842   3.327028   4.356617   2.086720   2.528213
    25  C    2.996122   2.994794   4.042108   2.457987   3.349707
    26  H    2.874691   3.391820   4.492588   3.150615   4.266222
    27  H    2.858833   2.648262   3.470809   2.416823   3.173157
    28  O    4.423331   4.273491   5.242309   3.468300   3.927586
    29  C    5.122506   5.328484   6.358625   4.683404   5.315123
    30  H    6.153176   6.247144   7.235660   5.494797   5.929188
    31  H    5.019510   5.383786   6.345068   4.991664   5.729956
    32  H    5.061809   5.450768   6.583051   4.803089   5.596851
                    6          7          8          9         10
     6  C    0.000000
     7  O    1.231391   0.000000
     8  N    1.365716   2.285432   0.000000
     9  C    2.512077   3.640471   1.461441   0.000000
    10  C    2.427119   2.748798   1.458127   2.478099   0.000000
    11  H    5.438475   5.944646   6.052504   5.961050   7.253266
    12  H    4.832132   5.210932   5.306784   5.393692   6.269287
    13  H    4.732409   4.888765   5.612985   5.958035   6.665473
    14  H    2.114859   2.574059   3.221561   3.806302   4.420473
    15  H    2.229562   3.300057   2.680787   2.572487   4.126282
    16  H    2.698211   3.896432   2.118568   1.090391   3.369688
    17  H    3.309896   4.306654   2.083405   1.094342   2.558078
    18  H    3.100197   4.213680   2.130267   1.098447   2.967117
    19  H    3.133165   3.442000   2.111521   2.785033   1.096906
    20  H    2.461890   2.259958   2.078142   3.388618   1.088462
    21  H    3.173781   3.563118   2.105816   2.730281   1.096594
    22  C    2.993393   2.865292   4.197080   4.963835   5.176830
    23  H    4.029481   3.919139   5.211428   5.859330   6.231698
    24  H    2.896884   2.493733   4.236297   5.183390   5.115943
    25  C    3.208304   2.856730   4.163528   5.063786   4.817957
    26  H    4.258128   3.915569   5.159237   5.962038   5.787611
    27  H    2.857675   2.805133   3.518995   4.288796   4.172152
    28  O    3.347380   2.495949   4.312017   5.507316   4.604876
    29  C    4.765296   3.875556   5.652181   6.832693   5.785826
    30  H    5.197060   4.152520   6.028050   7.319157   5.941252
    31  H    5.143839   4.408517   5.854020   6.924564   5.935447
    32  H    5.312970   4.463564   6.339655   7.465924   6.636707
                   11         12         13         14         15
    11  H    0.000000
    12  H    1.761824   0.000000
    13  H    1.781614   1.780445   0.000000
    14  H    5.124584   5.197716   4.504269   0.000000
    15  H    4.536052   4.615981   4.481094   1.773365   0.000000
    16  H    5.008073   4.618596   5.214159   3.578723   2.021389
    17  H    6.396754   5.627979   6.464729   4.836165   3.586597
    18  H    6.728317   6.347964   6.795186   4.029393   2.840629
    19  H    7.285026   6.111860   6.766240   5.213364   4.720861
    20  H    7.497709   6.474150   6.659391   4.394030   4.522792
    21  H    8.119776   7.234857   7.629602   4.932382   4.588183
    22  C    3.651340   3.358491   2.284279   2.700213   3.382116
    23  H    3.255708   3.301834   1.759692   3.412651   4.062923
    24  H    4.651691   4.421870   3.298541   2.346479   3.552388
    25  C    4.063370   3.075133   2.578387   3.822244   4.231892
    26  H    3.870195   2.826822   2.250384   4.725534   5.079222
    27  H    3.945131   2.699125   2.837984   3.908427   3.892505
    28  O    5.484855   4.464436   3.939665   4.183684   4.936114
    29  C    6.143223   5.025563   4.479686   5.540663   6.312681
    30  H    7.185705   6.054163   5.523420   6.062931   6.957038
    31  H    6.030688   4.700792   4.483111   6.128402   6.641524
    32  H    5.992254   5.095865   4.238292   5.711296   6.602336
                   16         17         18         19         20
    16  H    0.000000
    17  H    1.759649   0.000000
    18  H    1.792697   1.771130   0.000000
    19  H    3.591290   2.443477   3.458951   0.000000
    20  H    4.165107   3.597290   3.865702   1.782514   0.000000
    21  H    3.777694   2.760143   2.824043   1.778256   1.787562
    22  C    4.530605   5.674547   5.682789   5.565366   4.954489
    23  H    5.300377   6.564616   6.565564   6.581457   6.019834
    24  H    4.915357   5.982500   5.772373   5.671742   4.737180
    25  C    4.772055   5.521745   5.962623   4.953875   4.520178
    26  H    5.575929   6.347194   6.900277   5.810780   5.497312
    27  H    4.005322   4.616443   5.273143   4.159679   4.067000
    28  O    5.481098   5.948190   6.334080   4.818774   4.004666
    29  C    6.790619   7.172052   7.703560   5.854955   5.116568
    30  H    7.415279   7.636744   8.134376   6.040223   5.127367
    31  H    6.849761   7.119675   7.881062   5.807277   5.378676
    32  H    7.308978   7.892093   8.312924   6.772970   5.989261
                   21         22         23         24         25
    21  H    0.000000
    22  C    6.089508   0.000000
    23  H    7.144887   1.070000   0.000000
    24  H    5.948243   1.070000   1.747303   0.000000
    25  C    5.860594   1.540000   2.148263   2.148263   0.000000
    26  H    6.851715   2.148263   2.253759   2.864633   1.070000
    27  H    5.235491   2.148263   2.864634   2.837801   1.070000
    28  O    5.616499   2.425826   3.118437   2.398014   1.430000
    29  C    6.806314   3.473793   3.842527   3.506002   2.335595
    30  H    6.893482   4.306970   4.747051   4.132067   3.267018
    31  H    6.997093   3.935282   4.264819   4.209205   2.537322
    32  H    7.650026   3.428736   3.508296   3.456055   2.601925
                   26         27         28         29         30
    26  H    0.000000
    27  H    1.747303   0.000000
    28  O    2.051796   2.051796   0.000000
    29  C    2.292179   3.013474   1.430000   0.000000
    30  H    3.353749   3.864006   2.051796   1.070000   0.000000
    31  H    2.248416   2.944255   2.051796   1.070000   1.747303
    32  H    2.281529   3.500506   2.051796   1.070000   1.747303
                   31         32
    31  H    0.000000
    32  H    1.747303   0.000000
 Stoichiometry    C9H18N2O3
 Framework group  C1[X(C9H18N2O3)]
 Deg. of freedom    90
 Full point group                 C1      NOp   1
 Largest Abelian subgroup         C1      NOp   1
 Largest concise Abelian subgroup C1      NOp   1
                         Standard orientation:                         
 ---------------------------------------------------------------------
 Center     Atomic      Atomic             Coordinates (Angstroms)
 Number     Number       Type             X           Y           Z
 ---------------------------------------------------------------------
      1          6           0        1.586007    2.643661   -0.757479
      2          6           0        0.254646    2.207425   -0.170313
      3          8           0       -0.805463    2.722525   -0.516668
      4          7           0        0.322216    1.225259    0.778668
      5          6           0       -0.880963    0.614935    1.322791
      6          6           0       -1.163608   -0.727519    0.629692
      7          8           0       -0.369793   -1.648629    0.823958
      8          7           0       -2.266737   -0.846433   -0.166641
      9          6           0       -3.172748    0.243052   -0.524377
     10          6           0       -2.580214   -2.154380   -0.729794
     11          1           0        1.658303    3.731445   -0.686158
     12          1           0        1.605269    2.384022   -1.820029
     13          1           0        2.451331    2.192601   -0.265191
     14          1           0       -0.712180    0.375648    2.376650
     15          1           0       -1.679307    1.349815    1.253936
     16          1           0       -2.663131    1.206852   -0.506083
     17          1           0       -3.521747    0.078785   -1.548487
     18          1           0       -4.055042    0.272688    0.129278
     19          1           0       -2.514792   -2.130389   -1.824485
     20          1           0       -1.865185   -2.877826   -0.342355
     21          1           0       -3.598069   -2.452916   -0.451647
     22          6           0        1.567638    0.459581    0.932166
     23          1           0        2.375968    1.130441    1.135757
     24          1           0        1.464236   -0.230795    1.743084
     25          6           0        1.857796   -0.314469   -0.367163
     26          1           0        2.779579    0.028651   -0.788454
     27          1           0        1.063611   -0.150149   -1.065138
     28          8           0        1.956702   -1.711398   -0.077840
     29          6           0        3.203036   -2.213208   -0.567471
     30          1           0        3.246565   -3.271247   -0.413982
     31          1           0        3.287176   -2.000688   -1.612772
     32          1           0        4.007940   -1.743170   -0.042024
 ---------------------------------------------------------------------
 Rotational constants (GHZ):      0.7353868      0.6045366      0.3871823
 Standard basis: 6-31G(d,p) (6D, 7F)
 There are   300 symmetry adapted basis functions of A   symmetry.
 Integral buffers will be    131072 words long.
 Raffenetti 2 integral format.
 Two-electron integral symmetry is turned on.
   300 basis functions,   518 primitive gaussians,   300 cartesian basis functions
    55 alpha electrons       55 beta electrons
       nuclear repulsion energy      1012.5474643820 Hartrees.
 NAtoms=   32 NActive=   32 NUniq=   32 SFac= 1.00D+00 NAtFMM=   60 NAOKFM=F Big=F
 One-electron integrals computed using PRISM.
 NBasis=   300 RedAO= T  NBF=   300
 NBsUse=   300 1.00D-06 NBFU=   300
 Harris functional with IExCor=  402 diagonalized for initial guess.
 ExpMin= 1.61D-01 ExpMax= 5.48D+03 ExpMxC= 8.25D+02 IAcc=1 IRadAn=         1 AccDes= 0.00D+00
 HarFok:  IExCor=  402 AccDes= 0.00D+00 IRadAn=         1 IDoV= 1
 ScaDFX=  1.000000  1.000000  1.000000  1.000000
 FoFCou: FMM=F IPFlag=           0 FMFlag=      100000 FMFlg1=           0
         NFxFlg=           0 DoJE=T BraDBF=F KetDBF=T FulRan=T
         Omega=  0.000000  0.000000  1.000000  0.000000  0.000000 ICntrl=     500 IOpCl=  0
         NMat0=    1 NMatS0=    1 NMatT0=    0 NMatD0=    1 NMtDS0=    0 NMtDT0=    0
         I1Cent=           4 NGrid=           0.
 Petite list used in FoFCou.
 Initial guess orbital symmetries:
       Occupied  (A) (A) (A) (A) (A) (A) (A) (A) (A) (A) (A) (A)
                 (A) (A) (A) (A) (A) (A) (A) (A) (A) (A) (A) (A)
                 (A) (A) (A) (A) (A) (A) (A) (A) (A) (A) (A) (A)
                 (A) (A) (A) (A) (A) (A) (A) (A) (A) (A) (A) (A)
                 (A) (A) (A) (A) (A) (A) (A)
       Virtual   (A) (A) (A) (A) (A) (A) (A) (A) (A) (A) (A) (A)
                 (A) (A) (A) (A) (A) (A) (A) (A) (A) (A) (A) (A)
                 (A) (A) (A) (A) (A) (A) (A) (A) (A) (A) (A) (A)
                 (A) (A) (A) (A) (A) (A) (A) (A) (A) (A) (A) (A)
                 (A) (A) (A) (A) (A) (A) (A) (A) (A) (A) (A) (A)
                 (A) (A) (A) (A) (A) (A) (A) (A) (A) (A) (A) (A)
                 (A) (A) (A) (A) (A) (A) (A) (A) (A) (A) (A) (A)
                 (A) (A) (A) (A) (A) (A) (A) (A) (A) (A) (A) (A)
                 (A) (A) (A) (A) (A) (A) (A) (A) (A) (A) (A) (A)
                 (A) (A) (A) (A) (A) (A) (A) (A) (A) (A) (A) (A)
                 (A) (A) (A) (A) (A) (A) (A) (A) (A) (A) (A) (A)
                 (A) (A) (A) (A) (A) (A) (A) (A) (A) (A) (A) (A)
                 (A) (A) (A) (A) (A) (A) (A) (A) (A) (A) (A) (A)
                 (A) (A) (A) (A) (A) (A) (A) (A) (A) (A) (A) (A)
                 (A) (A) (A) (A) (A) (A) (A) (A) (A) (A) (A) (A)
                 (A) (A) (A) (A) (A) (A) (A) (A) (A) (A) (A) (A)
                 (A) (A) (A) (A) (A) (A) (A) (A) (A) (A) (A) (A)
                 (A) (A) (A) (A) (A) (A) (A) (A) (A) (A) (A) (A)
                 (A) (A) (A) (A) (A) (A) (A) (A) (A) (A) (A) (A)
                 (A) (A) (A) (A) (A) (A) (A) (A) (A) (A) (A) (A)
                 (A) (A) (A) (A) (A)
 The electronic state of the initial guess is 1-A.
 Requested convergence on RMS density matrix=1.00D-08 within 128 cycles.
 Requested convergence on MAX density matrix=1.00D-06.
 Requested convergence on             energy=1.00D-06.
 No special actions if energy rises.
 Keep R1 ints in memory in canonical form, NReq=1033483587.
 Integral accuracy reduced to 1.0D-05 until final iterations.
 Initial convergence to 1.0D-05 achieved.  Increase integral accuracy.
 SCF Done:  E(RB3LYP) =  -688.964778059     A.U. after   15 cycles
             Convg  =    0.8040D-08             -V/T =  2.0087

 **********************************************************************

            Population analysis using the SCF density.

 **********************************************************************

 Orbital symmetries:
       Occupied  (A) (A) (A) (A) (A) (A) (A) (A) (A) (A) (A) (A)
                 (A) (A) (A) (A) (A) (A) (A) (A) (A) (A) (A) (A)
                 (A) (A) (A) (A) (A) (A) (A) (A) (A) (A) (A) (A)
                 (A) (A) (A) (A) (A) (A) (A) (A) (A) (A) (A) (A)
                 (A) (A) (A) (A) (A) (A) (A)
       Virtual   (A) (A) (A) (A) (A) (A) (A) (A) (A) (A) (A) (A)
                 (A) (A) (A) (A) (A) (A) (A) (A) (A) (A) (A) (A)
                 (A) (A) (A) (A) (A) (A) (A) (A) (A) (A) (A) (A)
                 (A) (A) (A) (A) (A) (A) (A) (A) (A) (A) (A) (A)
                 (A) (A) (A) (A) (A) (A) (A) (A) (A) (A) (A) (A)
                 (A) (A) (A) (A) (A) (A) (A) (A) (A) (A) (A) (A)
                 (A) (A) (A) (A) (A) (A) (A) (A) (A) (A) (A) (A)
                 (A) (A) (A) (A) (A) (A) (A) (A) (A) (A) (A) (A)
                 (A) (A) (A) (A) (A) (A) (A) (A) (A) (A) (A) (A)
                 (A) (A) (A) (A) (A) (A) (A) (A) (A) (A) (A) (A)
                 (A) (A) (A) (A) (A) (A) (A) (A) (A) (A) (A) (A)
                 (A) (A) (A) (A) (A) (A) (A) (A) (A) (A) (A) (A)
                 (A) (A) (A) (A) (A) (A) (A) (A) (A) (A) (A) (A)
                 (A) (A) (A) (A) (A) (A) (A) (A) (A) (A) (A) (A)
                 (A) (A) (A) (A) (A) (A) (A) (A) (A) (A) (A) (A)
                 (A) (A) (A) (A) (A) (A) (A) (A) (A) (A) (A) (A)
                 (A) (A) (A) (A) (A) (A) (A) (A) (A) (A) (A) (A)
                 (A) (A) (A) (A) (A) (A) (A) (A) (A) (A) (A) (A)
                 (A) (A) (A) (A) (A) (A) (A) (A) (A) (A) (A) (A)
                 (A) (A) (A) (A) (A) (A) (A) (A) (A) (A) (A) (A)
                 (A) (A) (A) (A) (A)
 The electronic state is 1-A.
 Alpha  occ. eigenvalues --  -19.13061 -19.10792 -19.09976 -14.36298 -14.36254
 Alpha  occ. eigenvalues --  -10.28389 -10.27581 -10.22281 -10.22147 -10.21400
 Alpha  occ. eigenvalues --  -10.21208 -10.21194 -10.20865 -10.19023  -1.03212
 Alpha  occ. eigenvalues --   -1.02169  -1.01152  -0.93433  -0.92565  -0.77318
 Alpha  occ. eigenvalues --   -0.74539  -0.72266  -0.70782  -0.68097  -0.67206
 Alpha  occ. eigenvalues --   -0.62726  -0.55501  -0.53282  -0.51739  -0.49408
 Alpha  occ. eigenvalues --   -0.48900  -0.47797  -0.46634  -0.46293  -0.45351
 Alpha  occ. eigenvalues --   -0.44509  -0.43643  -0.41270  -0.40863  -0.40263
 Alpha  occ. eigenvalues --   -0.40134  -0.39460  -0.39233  -0.38649  -0.38368
 Alpha  occ. eigenvalues --   -0.37169  -0.35914  -0.35272  -0.34524  -0.30529
 Alpha  occ. eigenvalues --   -0.25965  -0.24793  -0.23993  -0.23176  -0.22406
 Alpha virt. eigenvalues --    0.01761   0.02988   0.07798   0.09825   0.10254
 Alpha virt. eigenvalues --    0.11816   0.13098   0.13717   0.14474   0.14777
 Alpha virt. eigenvalues --    0.15491   0.15878   0.16471   0.17220   0.17531
 Alpha virt. eigenvalues --    0.17865   0.18023   0.18361   0.18671   0.19598
 Alpha virt. eigenvalues --    0.20990   0.21793   0.22030   0.22769   0.23365
 Alpha virt. eigenvalues --    0.24570   0.27096   0.28036   0.29104   0.32868
 Alpha virt. eigenvalues --    0.36585   0.40064   0.43255   0.47859   0.50230
 Alpha virt. eigenvalues --    0.50844   0.51641   0.52047   0.52946   0.53265
 Alpha virt. eigenvalues --    0.54535   0.55456   0.57298   0.58146   0.59532
 Alpha virt. eigenvalues --    0.59807   0.61779   0.62568   0.64283   0.64814
 Alpha virt. eigenvalues --    0.67559   0.68043   0.69520   0.69694   0.71056
 Alpha virt. eigenvalues --    0.72252   0.74584   0.75331   0.77873   0.78813
 Alpha virt. eigenvalues --    0.80081   0.81025   0.81800   0.82132   0.83614
 Alpha virt. eigenvalues --    0.84248   0.84773   0.85448   0.86154   0.86560
 Alpha virt. eigenvalues --    0.87094   0.88312   0.89498   0.90084   0.90841
 Alpha virt. eigenvalues --    0.91052   0.92674   0.94210   0.94646   0.95199
 Alpha virt. eigenvalues --    0.96372   0.96739   0.98174   1.00117   1.00696
 Alpha virt. eigenvalues --    1.01540   1.04987   1.08101   1.11024   1.13048
 Alpha virt. eigenvalues --    1.14845   1.17320   1.18870   1.22913   1.24971
 Alpha virt. eigenvalues --    1.25912   1.28754   1.30425   1.31649   1.35371
 Alpha virt. eigenvalues --    1.36843   1.37756   1.38748   1.41135   1.43371
 Alpha virt. eigenvalues --    1.45005   1.47648   1.48917   1.51392   1.54490
 Alpha virt. eigenvalues --    1.58675   1.61970   1.62566   1.64661   1.66572
 Alpha virt. eigenvalues --    1.68057   1.69780   1.71416   1.72679   1.74729
 Alpha virt. eigenvalues --    1.77507   1.79122   1.79897   1.81410   1.83341
 Alpha virt. eigenvalues --    1.84061   1.86099   1.87439   1.88735   1.90036
 Alpha virt. eigenvalues --    1.90891   1.91713   1.93122   1.94840   1.95335
 Alpha virt. eigenvalues --    1.97287   1.98242   2.00675   2.00989   2.02490
 Alpha virt. eigenvalues --    2.03155   2.03600   2.04000   2.04319   2.05131
 Alpha virt. eigenvalues --    2.05815   2.06211   2.07159   2.08646   2.09332
 Alpha virt. eigenvalues --    2.09550   2.10472   2.11261   2.12502   2.13484
 Alpha virt. eigenvalues --    2.15814   2.16727   2.17987   2.21496   2.22636
 Alpha virt. eigenvalues --    2.26753   2.27973   2.29743   2.30365   2.32049
 Alpha virt. eigenvalues --    2.33460   2.35359   2.36691   2.38683   2.39324
 Alpha virt. eigenvalues --    2.41004   2.44362   2.46017   2.46536   2.48747
 Alpha virt. eigenvalues --    2.48836   2.54711   2.56098   2.57250   2.58358
 Alpha virt. eigenvalues --    2.59569   2.60349   2.62394   2.65043   2.65725
 Alpha virt. eigenvalues --    2.67300   2.68844   2.69700   2.71401   2.71997
 Alpha virt. eigenvalues --    2.72158   2.75047   2.76406   2.77240   2.81341
 Alpha virt. eigenvalues --    2.84024   2.85568   2.86104   2.87562   2.88168
 Alpha virt. eigenvalues --    2.89292   2.89432   2.91213   2.92437   2.95644
 Alpha virt. eigenvalues --    3.00053   3.01683   3.03557   3.06639   3.09273
 Alpha virt. eigenvalues --    3.12552   3.13143   3.16626   3.18993   3.24916
 Alpha virt. eigenvalues --    3.26198   3.27871   3.33917   3.36670   3.40604
 Alpha virt. eigenvalues --    3.40779   3.43818   3.44146   3.44590   3.46262
 Alpha virt. eigenvalues --    3.46619   3.47708   3.48923   3.49713   3.52766
 Alpha virt. eigenvalues --    3.55166   3.99472   4.03417   4.10445   4.11239
 Alpha virt. eigenvalues --    4.25067   4.32096   4.39911   4.45766   4.50559
 Alpha virt. eigenvalues --    4.52068   4.55532   4.65319   4.70670   4.78105
          Condensed to atoms (all electrons):
              1          2          3          4          5          6
     1  C    5.142195   0.351788  -0.075847  -0.120427   0.007278  -0.000196
     2  C    0.351788   4.376054   0.557645   0.283013  -0.026906  -0.002154
     3  O   -0.075847   0.557645   8.103939  -0.094763  -0.001383   0.000409
     4  N   -0.120427   0.283013  -0.094763   7.061524   0.293284  -0.055606
     5  C    0.007278  -0.026906  -0.001383   0.293284   5.000865   0.330566
     6  C   -0.000196  -0.002154   0.000409  -0.055606   0.330566   4.475499
     7  O   -0.000009  -0.000238   0.000000  -0.004520  -0.083382   0.519791
     8  N    0.000010   0.001235  -0.000087   0.000479  -0.097729   0.280753
     9  C   -0.000075  -0.000527  -0.009161   0.001038   0.000487  -0.023861
    10  C    0.000000  -0.000034   0.000002  -0.000153   0.005805  -0.030563
    11  H    0.371971  -0.022023   0.000821   0.002531  -0.000145  -0.000003
    12  H    0.373980  -0.023635  -0.000164   0.001855  -0.000139   0.000037
    13  H    0.349398  -0.021912   0.003500  -0.000042  -0.000214  -0.000017
    14  H   -0.000178   0.004331   0.000416  -0.036888   0.373711  -0.039461
    15  H    0.000556  -0.005906   0.012430  -0.038406   0.356889  -0.026604
    16  H    0.000292   0.000510   0.026257  -0.002316  -0.000936  -0.002652
    17  H    0.000001  -0.000020   0.000014   0.000021  -0.000071   0.002136
    18  H    0.000000   0.000034   0.000100  -0.000062  -0.000142  -0.001915
    19  H    0.000000  -0.000002   0.000000   0.000021  -0.000199   0.001201
    20  H    0.000000  -0.000001   0.000000  -0.000017   0.001079  -0.003311
    21  H    0.000000   0.000001   0.000000  -0.000003  -0.000130   0.001487
    22  C   -0.002016  -0.023464   0.003047   0.246549  -0.042780  -0.004096
    23  H   -0.007131  -0.006443  -0.000061  -0.038523   0.003026   0.000276
    24  H    0.000617   0.001977  -0.000096  -0.025892  -0.004184  -0.003268
    25  C   -0.005518  -0.006012  -0.000086  -0.057712  -0.001052   0.003784
    26  H   -0.000236   0.000482  -0.000008   0.003903  -0.000060  -0.000044
    27  H   -0.000740   0.002672  -0.000300  -0.001898   0.000163   0.002901
    28  O    0.000085  -0.000007   0.000000   0.002917   0.000085   0.002167
    29  C   -0.000002   0.000005   0.000000  -0.000043  -0.000010  -0.000065
    30  H    0.000000   0.000000   0.000000   0.000004   0.000000  -0.000002
    31  H    0.000002  -0.000001   0.000000   0.000013   0.000000   0.000000
    32  H   -0.000005   0.000001   0.000000  -0.000036   0.000001   0.000004
              7          8          9         10         11         12
     1  C   -0.000009   0.000010  -0.000075   0.000000   0.371971   0.373980
     2  C   -0.000238   0.001235  -0.000527  -0.000034  -0.022023  -0.023635
     3  O    0.000000  -0.000087  -0.009161   0.000002   0.000821  -0.000164
     4  N   -0.004520   0.000479   0.001038  -0.000153   0.002531   0.001855
     5  C   -0.083382  -0.097729   0.000487   0.005805  -0.000145  -0.000139
     6  C    0.519791   0.280753  -0.023861  -0.030563  -0.000003   0.000037
     7  O    8.136195  -0.090332   0.002593  -0.011412   0.000000   0.000000
     8  N   -0.090332   7.009423   0.281057   0.290186   0.000000   0.000000
     9  C    0.002593   0.281057   4.863132  -0.048222   0.000000   0.000002
    10  C   -0.011412   0.290186  -0.048222   4.823402   0.000000   0.000000
    11  H    0.000000   0.000000   0.000000   0.000000   0.551123  -0.021715
    12  H    0.000000   0.000000   0.000002   0.000000  -0.021715   0.554616
    13  H    0.000000  -0.000001   0.000002   0.000000  -0.025197  -0.029092
    14  H   -0.000054   0.003242   0.000121  -0.000185   0.000011  -0.000003
    15  H    0.003481   0.001197  -0.000193  -0.000192  -0.000005  -0.000016
    16  H    0.000035  -0.029393   0.370975   0.003578  -0.000001  -0.000009
    17  H   -0.000049  -0.038718   0.385563  -0.004797   0.000000   0.000000
    18  H   -0.000039  -0.045729   0.377651   0.000761   0.000000   0.000000
    19  H    0.000682  -0.042051  -0.003633   0.385262   0.000000   0.000000
    20  H    0.023745  -0.036162   0.004443   0.384079   0.000000   0.000000
    21  H    0.000665  -0.046791   0.000017   0.386205   0.000000   0.000000
    22  C    0.002331   0.000147  -0.000050   0.000005  -0.000243  -0.000721
    23  H    0.000544   0.000006   0.000000   0.000000   0.000950  -0.000148
    24  H    0.010362   0.000237  -0.000008  -0.000004  -0.000002  -0.000033
    25  C    0.004899  -0.000708   0.000024   0.000044   0.000077   0.001264
    26  H    0.000363  -0.000005   0.000000   0.000000   0.000134  -0.000449
    27  H   -0.000675   0.000364   0.000035   0.000024   0.000092   0.001362
    28  O   -0.012533   0.000010   0.000000  -0.000021  -0.000001   0.000001
    29  C    0.000685   0.000000   0.000000   0.000001   0.000000  -0.000001
    30  H    0.000016   0.000000   0.000000   0.000000   0.000000   0.000000
    31  H   -0.000027   0.000000   0.000000   0.000000   0.000000   0.000009
    32  H   -0.000025   0.000000   0.000000   0.000000   0.000000  -0.000003
             13         14         15         16         17         18
     1  C    0.349398  -0.000178   0.000556   0.000292   0.000001   0.000000
     2  C   -0.021912   0.004331  -0.005906   0.000510  -0.000020   0.000034
     3  O    0.003500   0.000416   0.012430   0.026257   0.000014   0.000100
     4  N   -0.000042  -0.036888  -0.038406  -0.002316   0.000021  -0.000062
     5  C   -0.000214   0.373711   0.356889  -0.000936  -0.000071  -0.000142
     6  C   -0.000017  -0.039461  -0.026604  -0.002652   0.002136  -0.001915
     7  O    0.000000  -0.000054   0.003481   0.000035  -0.000049  -0.000039
     8  N   -0.000001   0.003242   0.001197  -0.029393  -0.038718  -0.045729
     9  C    0.000002   0.000121  -0.000193   0.370975   0.385563   0.377651
    10  C    0.000000  -0.000185  -0.000192   0.003578  -0.004797   0.000761
    11  H   -0.025197   0.000011  -0.000005  -0.000001   0.000000   0.000000
    12  H   -0.029092  -0.000003  -0.000016  -0.000009   0.000000   0.000000
    13  H    0.623540  -0.000014  -0.000040  -0.000009   0.000000   0.000000
    14  H   -0.000014   0.590426  -0.024889  -0.000004  -0.000019   0.000119
    15  H   -0.000040  -0.024889   0.583978  -0.001190   0.000153   0.000496
    16  H   -0.000009  -0.000004  -0.001190   0.516073  -0.021768  -0.029672
    17  H    0.000000  -0.000019   0.000153  -0.021768   0.601794  -0.043646
    18  H    0.000000   0.000119   0.000496  -0.029672  -0.043646   0.626883
    19  H    0.000000  -0.000002   0.000001   0.000149   0.006685  -0.000967
    20  H    0.000000  -0.000027  -0.000049  -0.000187   0.000056  -0.000118
    21  H    0.000000   0.000020  -0.000018  -0.000062  -0.002515   0.004020
    22  C    0.002104  -0.007349   0.005567  -0.000008   0.000003  -0.000001
    23  H   -0.003597   0.000669  -0.000135   0.000000   0.000000   0.000000
    24  H    0.000596   0.004393   0.000406  -0.000006   0.000000   0.000000
    25  C   -0.006206  -0.000542  -0.000350   0.000014   0.000001  -0.000001
    26  H    0.003016   0.000003   0.000012  -0.000001   0.000000   0.000000
    27  H   -0.001562   0.000115  -0.000186   0.000011  -0.000008   0.000001
    28  O    0.000008   0.000022   0.000002   0.000000   0.000000   0.000000
    29  C   -0.000063   0.000000   0.000000   0.000000   0.000000   0.000000
    30  H    0.000000   0.000000   0.000000   0.000000   0.000000   0.000000
    31  H   -0.000015   0.000000   0.000000   0.000000   0.000000   0.000000
    32  H    0.000030   0.000000   0.000000   0.000000   0.000000   0.000000
             19         20         21         22         23         24
     1  C    0.000000   0.000000   0.000000  -0.002016  -0.007131   0.000617
     2  C   -0.000002  -0.000001   0.000001  -0.023464  -0.006443   0.001977
     3  O    0.000000   0.000000   0.000000   0.003047  -0.000061  -0.000096
     4  N    0.000021  -0.000017  -0.000003   0.246549  -0.038523  -0.025892
     5  C   -0.000199   0.001079  -0.000130  -0.042780   0.003026  -0.004184
     6  C    0.001201  -0.003311   0.001487  -0.004096   0.000276  -0.003268
     7  O    0.000682   0.023745   0.000665   0.002331   0.000544   0.010362
     8  N   -0.042051  -0.036162  -0.046791   0.000147   0.000006   0.000237
     9  C   -0.003633   0.004443   0.000017  -0.000050   0.000000  -0.000008
    10  C    0.385262   0.384079   0.386205   0.000005   0.000000  -0.000004
    11  H    0.000000   0.000000   0.000000  -0.000243   0.000950  -0.000002
    12  H    0.000000   0.000000   0.000000  -0.000721  -0.000148  -0.000033
    13  H    0.000000   0.000000   0.000000   0.002104  -0.003597   0.000596
    14  H   -0.000002  -0.000027   0.000020  -0.007349   0.000669   0.004393
    15  H    0.000001  -0.000049  -0.000018   0.005567  -0.000135   0.000406
    16  H    0.000149  -0.000187  -0.000062  -0.000008   0.000000  -0.000006
    17  H    0.006685   0.000056  -0.002515   0.000003   0.000000   0.000000
    18  H   -0.000967  -0.000118   0.004020  -0.000001   0.000000   0.000000
    19  H    0.610504  -0.026146  -0.044356   0.000000   0.000000   0.000000
    20  H   -0.026146   0.514339  -0.023761  -0.000006   0.000000  -0.000007
    21  H   -0.044356  -0.023761   0.614448  -0.000001   0.000000   0.000000
    22  C    0.000000  -0.000006  -0.000001   4.982083   0.367321   0.382067
    23  H    0.000000   0.000000   0.000000   0.367321   0.638192  -0.021575
    24  H    0.000000  -0.000007   0.000000   0.382067  -0.021575   0.526421
    25  C    0.000013   0.000016  -0.000001   0.337689  -0.048226  -0.038759
    26  H    0.000000   0.000000   0.000000  -0.035264  -0.011143   0.004845
    27  H    0.000007   0.000004   0.000001  -0.068229   0.006527   0.002404
    28  O   -0.000005   0.000058   0.000000  -0.050599   0.004128   0.003477
    29  C    0.000000  -0.000001   0.000000   0.001986  -0.000066   0.000186
    30  H    0.000000   0.000000   0.000000  -0.000249   0.000011  -0.000031
    31  H    0.000000   0.000000   0.000000  -0.000750   0.000087   0.000090
    32  H    0.000000   0.000000   0.000000   0.002311  -0.000448   0.000065
             25         26         27         28         29         30
     1  C   -0.005518  -0.000236  -0.000740   0.000085  -0.000002   0.000000
     2  C   -0.006012   0.000482   0.002672  -0.000007   0.000005   0.000000
     3  O   -0.000086  -0.000008  -0.000300   0.000000   0.000000   0.000000
     4  N   -0.057712   0.003903  -0.001898   0.002917  -0.000043   0.000004
     5  C   -0.001052  -0.000060   0.000163   0.000085  -0.000010   0.000000
     6  C    0.003784  -0.000044   0.002901   0.002167  -0.000065  -0.000002
     7  O    0.004899   0.000363  -0.000675  -0.012533   0.000685   0.000016
     8  N   -0.000708  -0.000005   0.000364   0.000010   0.000000   0.000000
     9  C    0.000024   0.000000   0.000035   0.000000   0.000000   0.000000
    10  C    0.000044   0.000000   0.000024  -0.000021   0.000001   0.000000
    11  H    0.000077   0.000134   0.000092  -0.000001   0.000000   0.000000
    12  H    0.001264  -0.000449   0.001362   0.000001  -0.000001   0.000000
    13  H   -0.006206   0.003016  -0.001562   0.000008  -0.000063   0.000000
    14  H   -0.000542   0.000003   0.000115   0.000022   0.000000   0.000000
    15  H   -0.000350   0.000012  -0.000186   0.000002   0.000000   0.000000
    16  H    0.000014  -0.000001   0.000011   0.000000   0.000000   0.000000
    17  H    0.000001   0.000000  -0.000008   0.000000   0.000000   0.000000
    18  H   -0.000001   0.000000   0.000001   0.000000   0.000000   0.000000
    19  H    0.000013   0.000000   0.000007  -0.000005   0.000000   0.000000
    20  H    0.000016   0.000000   0.000004   0.000058  -0.000001   0.000000
    21  H   -0.000001   0.000000   0.000001   0.000000   0.000000   0.000000
    22  C    0.337689  -0.035264  -0.068229  -0.050599   0.001986  -0.000249
    23  H   -0.048226  -0.011143   0.006527   0.004128  -0.000066   0.000011
    24  H   -0.038759   0.004845   0.002404   0.003477   0.000186  -0.000031
    25  C    4.810431   0.353290   0.395806   0.221945  -0.030263   0.006325
    26  H    0.353290   0.685347  -0.047416  -0.029933  -0.016999   0.000166
    27  H    0.395806  -0.047416   0.633115  -0.036554   0.002976  -0.000232
    28  O    0.221945  -0.029933  -0.036554   8.224997   0.245709  -0.030792
    29  C   -0.030263  -0.016999   0.002976   0.245709   4.723869   0.397570
    30  H    0.006325   0.000166  -0.000232  -0.030792   0.397570   0.585688
    31  H   -0.015330   0.003379   0.003947  -0.036799   0.373500  -0.035267
    32  H   -0.009482   0.008857  -0.001108  -0.041722   0.371506  -0.038924
             31         32
     1  C    0.000002  -0.000005
     2  C   -0.000001   0.000001
     3  O    0.000000   0.000000
     4  N    0.000013  -0.000036
     5  C    0.000000   0.000001
     6  C    0.000000   0.000004
     7  O   -0.000027  -0.000025
     8  N    0.000000   0.000000
     9  C    0.000000   0.000000
    10  C    0.000000   0.000000
    11  H    0.000000   0.000000
    12  H    0.000009  -0.000003
    13  H   -0.000015   0.000030
    14  H    0.000000   0.000000
    15  H    0.000000   0.000000
    16  H    0.000000   0.000000
    17  H    0.000000   0.000000
    18  H    0.000000   0.000000
    19  H    0.000000   0.000000
    20  H    0.000000   0.000000
    21  H    0.000000   0.000000
    22  C   -0.000750   0.002311
    23  H    0.000087  -0.000448
    24  H    0.000090   0.000065
    25  C   -0.015330  -0.009482
    26  H    0.003379   0.008857
    27  H    0.003947  -0.001108
    28  O   -0.036799  -0.041722
    29  C    0.373500   0.371506
    30  H   -0.035267  -0.038924
    31  H    0.670100  -0.055938
    32  H   -0.055938   0.675509
 Mulliken atomic charges:
              1
     1  C   -0.385791
     2  C    0.559537
     3  O   -0.526624
     4  N   -0.419845
     5  C   -0.113776
     6  C    0.572807
     7  O   -0.503095
     8  N   -0.440642
     9  C   -0.201412
    10  C   -0.183771
    11  H    0.141626
    12  H    0.143001
    13  H    0.105787
    14  H    0.132014
    15  H    0.133012
    16  H    0.170319
    17  H    0.115184
    18  H    0.112224
    19  H    0.112834
    20  H    0.161973
    21  H    0.110773
    22  C   -0.097383
    23  H    0.115760
    24  H    0.155723
    25  C    0.084625
    26  H    0.077759
    27  H    0.106384
    28  O   -0.466644
    29  C   -0.070480
    30  H    0.115716
    31  H    0.092999
    32  H    0.089407
 Sum of Mulliken atomic charges =   0.00000
 Mulliken charges with hydrogens summed into heavy atoms:
              1
     1  C    0.004623
     2  C    0.559537
     3  O   -0.526624
     4  N   -0.419845
     5  C    0.151250
     6  C    0.572807
     7  O   -0.503095
     8  N   -0.440642
     9  C    0.196315
    10  C    0.201808
    22  C    0.174100
    25  C    0.268768
    28  O   -0.466644
    29  C    0.227642
 Sum of Mulliken charges with hydrogens summed into heavy atoms =   0.00000
 Electronic spatial extent (au):  <R**2>=           3097.5651
 Charge=              0.0000 electrons
 Dipole moment (field-independent basis, Debye):
    X=              0.9584    Y=             -0.0004    Z=             -0.5823  Tot=              1.1214
 Quadrupole moment (field-independent basis, Debye-Ang):
   XX=            -70.1240   YY=            -93.7693   ZZ=            -82.3345
   XY=              6.5966   XZ=             -1.3484   YZ=              5.5027
 Traceless Quadrupole moment (field-independent basis, Debye-Ang):
   XX=             11.9519   YY=            -11.6934   ZZ=             -0.2586
   XY=              6.5966   XZ=             -1.3484   YZ=              5.5027
 Octapole moment (field-independent basis, Debye-Ang**2):
  XXX=             -0.9341  YYY=            -27.1146  ZZZ=              2.6804  XYY=             19.7862
  XXY=            -15.4276  XXZ=             -5.4956  XZZ=             -0.5983  YZZ=             -1.2442
  YYZ=             -3.0433  XYZ=             -4.5755
 Hexadecapole moment (field-independent basis, Debye-Ang**3):
 XXXX=          -1952.1405 YYYY=          -1560.4938 ZZZZ=           -373.8700 XXXY=            -34.8667
 XXXZ=              9.3445 YYYX=             30.9123 YYYZ=             23.4008 ZZZX=              1.3254
 ZZZY=             -6.2406 XXYY=           -561.8580 XXZZ=           -402.9942 YYZZ=           -331.3609
 XXYZ=             13.6755 YYXZ=            -13.7845 ZZXY=             -2.6864
 N-N= 1.012547464382D+03 E-N=-3.631836882577D+03  KE= 6.830399194135D+02
 Calling FoFJK, ICntrl=      2127 FMM=F ISym2X=0 I1Cent= 0 IOpClX= 0 NMat=1 NMatS=1 NMatT=0.
 ***** Axes restored to original set *****
 -------------------------------------------------------------------
 Center     Atomic                   Forces (Hartrees/Bohr)
 Number     Number              X              Y              Z
 -------------------------------------------------------------------
      1        6           0.006632379    0.002855080   -0.000915431
      2        6          -0.002657152    0.000888826    0.005406815
      3        8           0.000334253    0.004129431   -0.000259851
      4        7           0.006298491   -0.013367865    0.003505587
      5        6           0.001115148    0.007089284    0.001569891
      6        6          -0.002314286   -0.002190340    0.001648412
      7        8          -0.008822044    0.007892984    0.008956045
      8        7          -0.000571473    0.002336507   -0.000960686
      9        6          -0.000015740   -0.000344142   -0.000315327
     10        6           0.000172798   -0.000095718    0.000264064
     11        1          -0.000340644    0.001346748    0.000014656
     12        1           0.000326964    0.000161790    0.000094639
     13        1           0.004632714    0.008849044   -0.002516829
     14        1           0.000537384   -0.000082086    0.000070266
     15        1          -0.001008408    0.000233078    0.000217617
     16        1           0.000065847   -0.000008374    0.000022705
     17        1          -0.000039747    0.000158195   -0.000015296
     18        1          -0.000004581    0.000118124    0.000083299
     19        1          -0.000070882    0.000006030   -0.000076699
     20        1           0.000198417   -0.000092965   -0.000066063
     21        1          -0.000104528    0.000102807    0.000009521
     22        6          -0.006951563    0.018214855   -0.010083826
     23        1           0.011992719   -0.007563254    0.007666957
     24        1          -0.008878696   -0.006865039    0.005214575
     25        6          -0.019613514   -0.029194387    0.016091248
     26        1           0.014169728   -0.001356724   -0.011808927
     27        1          -0.005745132    0.015373153   -0.006615366
     28        8           0.011883220   -0.008153909   -0.016275791
     29        6          -0.008768778    0.016070064    0.017830637
     30        1          -0.013475835   -0.008524783   -0.000706858
     31        1           0.004444688    0.005605118   -0.019773438
     32        1           0.016578256   -0.013591531    0.001723454
 -------------------------------------------------------------------
 Cartesian Forces:  Max     0.029194387 RMS     0.007953570

 GradGradGradGradGradGradGradGradGradGradGradGradGradGradGradGradGradGrad
 Berny optimization.
 Internal  Forces:  Max     0.049529019 RMS     0.011200406
 Search for a local minimum.
 Step number   1 out of a maximum of  155
 All quantities printed in internal units (Hartrees-Bohrs-Radians)
 Mixed Optimization -- RFO/linear search
 Second derivative matrix not updated -- first step.
 ITU=  0
 DSYEVD returned Info=        4276 IAlg= 4 N=    90 NDim=    90 NE2=    20859721 trying DSYEV.
     Eigenvalues ---    0.00237   0.00276   0.00514   0.00766   0.00879
     Eigenvalues ---    0.00923   0.00968   0.01076   0.01165   0.01238
     Eigenvalues ---    0.01295   0.01295   0.01396   0.02123   0.02145
     Eigenvalues ---    0.04502   0.05075   0.05139   0.05496   0.05816
     Eigenvalues ---    0.06575   0.06854   0.07108   0.07474   0.07542
     Eigenvalues ---    0.07642   0.07647   0.08860   0.09624   0.10344
     Eigenvalues ---    0.10344   0.11239   0.12453   0.13052   0.13704
     Eigenvalues ---    0.16000   0.16000   0.16000   0.16000   0.16000
     Eigenvalues ---    0.16000   0.16000   0.16000   0.16000   0.16000
     Eigenvalues ---    0.16000   0.16000   0.21985   0.21991   0.22071
     Eigenvalues ---    0.23478   0.24043   0.24996   0.24998   0.24999
     Eigenvalues ---    0.25000   0.25000   0.25000   0.25000   0.28519
     Eigenvalues ---    0.28784   0.30456   0.33854   0.34027   0.34062
     Eigenvalues ---    0.34316   0.34357   0.34379   0.34471   0.34524
     Eigenvalues ---    0.34767   0.34991   0.35131   0.35740   0.36784
     Eigenvalues ---    0.37200   0.37230   0.37230   0.37230   0.37230
     Eigenvalues ---    0.37230   0.37230   0.37230   0.37633   0.40989
     Eigenvalues ---    0.40989   0.51480   0.51809   0.90509   0.91730
 RFO step:  Lambda=-6.70956949D-02 EMin= 2.36824178D-03
 Linear search not attempted -- first point.
 Maximum step size (   0.300) exceeded in Quadratic search.
    -- Step size scaled by   0.716
 Iteration  1 RMS(Cart)=  0.31416100 RMS(Int)=  0.01049102
 Iteration  2 RMS(Cart)=  0.04145767 RMS(Int)=  0.00089411
 Iteration  3 RMS(Cart)=  0.00072598 RMS(Int)=  0.00086883
 Iteration  4 RMS(Cart)=  0.00000067 RMS(Int)=  0.00086883
 Variable       Old X    -DE/DX   Delta X   Delta X   Delta X     New X
                                 (Linear)    (Quad)   (Total)
    R1        2.87064   0.00711   0.00000   0.01369   0.01369   2.88433
    R2        2.06455   0.00035   0.00000   0.00060   0.00060   2.06516
    R3        2.06733  -0.00009   0.00000  -0.00016  -0.00016   2.06717
    R4        2.06542  -0.00792   0.00000  -0.01376  -0.01376   2.05166
    R5        2.32146   0.00384   0.00000   0.00279   0.00279   2.32425
    R6        2.58401   0.01791   0.00000   0.02203   0.02203   2.60604
    R7        2.74902   0.01745   0.00000   0.02816   0.02816   2.77718
    R8        2.77790   0.02417   0.00000   0.04075   0.04075   2.81865
    R9        2.90456   0.00240   0.00000   0.00483   0.00483   2.90940
   R10        2.06695   0.00006   0.00000   0.00010   0.00010   2.06705
   R11        2.05463   0.00023   0.00000   0.00039   0.00039   2.05502
   R12        2.32699  -0.00860   0.00000  -0.00633  -0.00633   2.32066
   R13        2.58083   0.00220   0.00000   0.00269   0.00269   2.58352
   R14        2.76172  -0.00013   0.00000  -0.00021  -0.00021   2.76152
   R15        2.75546  -0.00021   0.00000  -0.00035  -0.00035   2.75511
   R16        2.06054   0.00007   0.00000   0.00011   0.00011   2.06065
   R17        2.06801   0.00012   0.00000   0.00021   0.00021   2.06822
   R18        2.07576   0.00010   0.00000   0.00018   0.00018   2.07595
   R19        2.07285   0.00007   0.00000   0.00012   0.00012   2.07298
   R20        2.05689   0.00008   0.00000   0.00013   0.00013   2.05703
   R21        2.07226   0.00012   0.00000   0.00022   0.00022   2.07248
   R22        2.02201   0.01421   0.00000   0.02314   0.02314   2.04514
   R23        2.02201   0.01216   0.00000   0.01981   0.01981   2.04182
   R24        2.91018   0.01893   0.00000   0.03846   0.03846   2.94863
   R25        2.02201   0.01820   0.00000   0.02963   0.02963   2.05164
   R26        2.02201   0.01755   0.00000   0.02858   0.02858   2.05059
   R27        2.70231   0.00062   0.00000   0.00092   0.00092   2.70323
   R28        2.70231   0.00062   0.00000   0.00093   0.00093   2.70324
   R29        2.02201   0.01564   0.00000   0.02547   0.02547   2.04747
   R30        2.02201   0.02021   0.00000   0.03291   0.03291   2.05492
   R31        2.02201   0.02088   0.00000   0.03400   0.03400   2.05601
    A1        1.89515  -0.00348   0.00000  -0.01254  -0.01255   1.88260
    A2        1.89938  -0.00131   0.00000  -0.00432  -0.00443   1.89494
    A3        1.98370   0.01029   0.00000   0.03434   0.03430   2.01800
    A4        1.87397  -0.00045   0.00000  -0.00559  -0.00569   1.86828
    A5        1.90616  -0.00291   0.00000  -0.00857  -0.00852   1.89764
    A6        1.90243  -0.00266   0.00000  -0.00536  -0.00548   1.89695
    A7        2.12578  -0.02131   0.00000  -0.04813  -0.04815   2.07763
    A8        2.01663   0.03885   0.00000   0.08762   0.08760   2.10423
    A9        2.14063  -0.01756   0.00000  -0.03969  -0.03971   2.10092
   A10        2.11772  -0.04953   0.00000  -0.11104  -0.11310   2.00463
   A11        2.08112   0.02019   0.00000   0.05428   0.05424   2.13536
   A12        2.02990   0.03204   0.00000   0.07988   0.07961   2.10951
   A13        1.92822   0.04288   0.00000   0.11078   0.11054   2.03876
   A14        1.90132  -0.00665   0.00000  -0.00116  -0.00297   1.89835
   A15        1.87554  -0.01742   0.00000  -0.05011  -0.04897   1.82656
   A16        1.84603  -0.00805   0.00000  -0.00776  -0.00981   1.83622
   A17        2.01170  -0.01516   0.00000  -0.04647  -0.04546   1.96624
   A18        1.89884   0.00447   0.00000  -0.00368  -0.00452   1.89432
   A19        2.05290   0.00821   0.00000   0.01855   0.01835   2.07125
   A20        2.08004  -0.00436   0.00000  -0.00983  -0.01003   2.07001
   A21        2.15024  -0.00384   0.00000  -0.00864  -0.00883   2.14141
   A22        2.18777   0.00024   0.00000   0.00053   0.00053   2.18830
   A23        2.06798  -0.00045   0.00000  -0.00102  -0.00102   2.06696
   A24        2.02738   0.00022   0.00000   0.00048   0.00048   2.02787
   A25        1.94452  -0.00007   0.00000  -0.00025  -0.00025   1.94427
   A26        1.89113   0.00015   0.00000   0.00048   0.00048   1.89161
   A27        1.95239   0.00012   0.00000   0.00038   0.00038   1.95277
   A28        1.87280  -0.00003   0.00000  -0.00008  -0.00008   1.87272
   A29        1.91938  -0.00005   0.00000  -0.00021  -0.00021   1.91917
   A30        1.88050  -0.00011   0.00000  -0.00033  -0.00033   1.88017
   A31        1.93157   0.00011   0.00000   0.00032   0.00032   1.93189
   A32        1.89388  -0.00024   0.00000  -0.00078  -0.00078   1.89310
   A33        1.92387   0.00009   0.00000   0.00034   0.00034   1.92421
   A34        1.90772  -0.00002   0.00000  -0.00021  -0.00021   1.90752
   A35        1.89067  -0.00008   0.00000  -0.00020  -0.00020   1.89047
   A36        1.91614   0.00014   0.00000   0.00053   0.00053   1.91667
   A37        1.91063  -0.01781   0.00000  -0.05369  -0.05321   1.85743
   A38        1.91063  -0.01017   0.00000  -0.01141  -0.01331   1.89733
   A39        1.91063   0.04510   0.00000   0.11875   0.11844   2.02907
   A40        1.91063   0.00440   0.00000  -0.00996  -0.01118   1.89945
   A41        1.91063  -0.01144   0.00000  -0.03002  -0.02880   1.88183
   A42        1.91063  -0.01009   0.00000  -0.01366  -0.01528   1.89535
   A43        1.91063  -0.00312   0.00000  -0.01032  -0.01004   1.90059
   A44        1.91063  -0.00230   0.00000   0.00120   0.00069   1.91132
   A45        1.91063   0.01752   0.00000   0.04639   0.04616   1.95679
   A46        1.91063  -0.00039   0.00000  -0.01120  -0.01128   1.89935
   A47        1.91063  -0.00933   0.00000  -0.03185  -0.03169   1.87894
   A48        1.91063  -0.00237   0.00000   0.00577   0.00513   1.91576
   A49        1.91114   0.02156   0.00000   0.04865   0.04865   1.95979
   A50        1.91063  -0.00854   0.00000  -0.02882  -0.02873   1.88191
   A51        1.91063   0.00854   0.00000   0.02785   0.02765   1.93828
   A52        1.91063   0.00771   0.00000   0.02527   0.02506   1.93569
   A53        1.91063  -0.00230   0.00000  -0.00918  -0.00909   1.90155
   A54        1.91063  -0.00184   0.00000  -0.00770  -0.00762   1.90301
   A55        1.91063  -0.00356   0.00000  -0.00742  -0.00787   1.90276
    D1        0.88543  -0.00269   0.00000  -0.01985  -0.01978   0.86565
    D2       -2.23795  -0.00134   0.00000  -0.00756  -0.00751  -2.24546
    D3       -1.14923   0.00048   0.00000  -0.00395  -0.00394  -1.15317
    D4        2.01057   0.00182   0.00000   0.00834   0.00834   2.01891
    D5        3.01055  -0.00206   0.00000  -0.01699  -0.01704   2.99351
    D6       -0.11283  -0.00072   0.00000  -0.00469  -0.00477  -0.11760
    D7       -3.02817  -0.01158   0.00000  -0.07719  -0.07532  -3.10350
    D8       -0.24791   0.00390   0.00000   0.01376   0.01187  -0.23604
    D9        0.13180  -0.01019   0.00000  -0.06470  -0.06281   0.06899
   D10        2.91206   0.00529   0.00000   0.02625   0.02439   2.93645
   D11        1.72558   0.00066   0.00000   0.00318   0.00079   1.72637
   D12       -2.53693   0.01116   0.00000   0.05534   0.05403  -2.48290
   D13       -0.48250   0.00326   0.00000   0.02266   0.02144  -0.46106
   D14       -1.06472  -0.01269   0.00000  -0.08169  -0.08080  -1.14553
   D15        0.95595  -0.00219   0.00000  -0.02953  -0.02756   0.92839
   D16        3.01038  -0.01009   0.00000  -0.06221  -0.06015   2.95023
   D17        1.00104   0.01029   0.00000   0.03832   0.03467   1.03571
   D18        3.09544  -0.00145   0.00000  -0.01374  -0.01646   3.07898
   D19       -1.09336   0.00759   0.00000   0.03525   0.03332  -1.06004
   D20       -2.48410   0.00849   0.00000   0.08611   0.08799  -2.39610
   D21       -0.38970  -0.00325   0.00000   0.03405   0.03687  -0.35283
   D22        1.70469   0.00580   0.00000   0.08304   0.08664   1.79134
   D23        1.17168   0.00947   0.00000   0.08229   0.08308   1.25476
   D24       -1.96736   0.00559   0.00000   0.04653   0.04709  -1.92027
   D25       -0.88327  -0.00015   0.00000   0.03098   0.03093  -0.85234
   D26        2.26088  -0.00404   0.00000  -0.00478  -0.00506   2.25582
   D27       -2.98165   0.00907   0.00000   0.06909   0.06870  -2.91296
   D28        0.16249   0.00519   0.00000   0.03334   0.03271   0.19520
   D29        0.09702   0.00220   0.00000   0.02006   0.01989   0.11691
   D30       -3.05640   0.00214   0.00000   0.01955   0.01938  -3.03702
   D31       -3.04187  -0.00193   0.00000  -0.01784  -0.01767  -3.05954
   D32        0.08789  -0.00199   0.00000  -0.01835  -0.01818   0.06971
   D33        0.47439  -0.00004   0.00000  -0.00025  -0.00025   0.47414
   D34        2.53075  -0.00002   0.00000  -0.00019  -0.00019   2.53056
   D35       -1.68199   0.00000   0.00000  -0.00007  -0.00007  -1.68206
   D36       -2.65562   0.00002   0.00000   0.00026   0.00026  -2.65536
   D37       -0.59926   0.00003   0.00000   0.00032   0.00032  -0.59894
   D38        1.47119   0.00006   0.00000   0.00044   0.00044   1.47163
   D39       -2.02861   0.00004   0.00000   0.00021   0.00021  -2.02841
   D40        0.06455  -0.00007   0.00000  -0.00034  -0.00034   0.06421
   D41        2.16339   0.00001   0.00000   0.00003   0.00003   2.16342
   D42        1.10223  -0.00001   0.00000  -0.00026  -0.00026   1.10197
   D43       -3.08779  -0.00012   0.00000  -0.00081  -0.00081  -3.08860
   D44       -0.98895  -0.00004   0.00000  -0.00043  -0.00043  -0.98938
   D45        2.05098  -0.00734   0.00000  -0.05790  -0.05816   1.99282
   D46       -0.04342  -0.00353   0.00000  -0.03860  -0.03877  -0.08218
   D47       -2.13781  -0.00995   0.00000  -0.07482  -0.07524  -2.21305
   D48       -0.04342  -0.00614   0.00000  -0.04648  -0.04633  -0.08974
   D49       -2.13781  -0.00233   0.00000  -0.02718  -0.02694  -2.16475
   D50        2.05098  -0.00875   0.00000  -0.06340  -0.06341   1.98757
   D51       -2.13781   0.00165   0.00000  -0.00752  -0.00735  -2.14516
   D52        2.05098   0.00546   0.00000   0.01177   0.01204   2.06302
   D53       -0.04342  -0.00096   0.00000  -0.02445  -0.02443  -0.06785
   D54       -2.19333   0.00064   0.00000   0.00235   0.00274  -2.19059
   D55       -0.09894   0.00182   0.00000  -0.00139  -0.00165  -0.10058
   D56        1.99546  -0.00583   0.00000  -0.03107  -0.03120   1.96426
   D57       -3.07105  -0.00058   0.00000  -0.00531  -0.00529  -3.07635
   D58       -0.97666  -0.00340   0.00000  -0.01715  -0.01758  -0.99424
   D59        1.11774   0.00218   0.00000   0.00629   0.00672   1.12445
         Item               Value     Threshold  Converged?
 Maximum Force            0.049529     0.000450     NO 
 RMS     Force            0.011200     0.000300     NO 
 Maximum Displacement     0.936454     0.001800     NO 
 RMS     Displacement     0.348586     0.001200     NO 
 Predicted change in Energy=-3.650406D-02
 GradGradGradGradGradGradGradGradGradGradGradGradGradGradGradGradGradGrad

                          Input orientation:                          
 ---------------------------------------------------------------------
 Center     Atomic      Atomic             Coordinates (Angstroms)
 Number     Number       Type             X           Y           Z
 ---------------------------------------------------------------------
      1          6           0        3.250911    0.045576   -0.907253
      2          6           0        1.979859    0.209210   -0.078215
      3          8           0        1.619640    1.339778    0.245525
      4          7           0        1.264227   -0.895340    0.333660
      5          6           0        0.035753   -0.591997    1.081067
      6          6           0       -1.285701   -0.635618    0.292282
      7          8           0       -1.727893   -1.726846   -0.056678
      8          7           0       -1.938703    0.539504    0.043782
      9          6           0       -1.423652    1.873632    0.344309
     10          6           0       -3.252629    0.483755   -0.585573
     11          1           0        4.042724    0.623847   -0.424633
     12          1           0        3.083943    0.490543   -1.892513
     13          1           0        3.596402   -0.975013   -1.040512
     14          1           0       -0.082010   -1.330586    1.879252
     15          1           0        0.221709    0.379263    1.533472
     16          1           0       -0.333330    1.889633    0.339261
     17          1           0       -1.762818    2.558975   -0.438697
     18          1           0       -1.799796    2.250961    1.305004
     19          1           0       -3.231247    0.965831   -1.570709
     20          1           0       -3.534891   -0.561022   -0.702490
     21          1           0       -3.993322    1.001728    0.035594
     22          6           0        1.499693   -2.255232   -0.232040
     23          1           0        2.534975   -2.496192   -0.028624
     24          1           0        0.868572   -2.961131    0.288381
     25          6           0        1.264828   -2.414791   -1.766338
     26          1           0        2.213403   -2.635412   -2.246168
     27          1           0        0.874847   -1.486843   -2.171709
     28          8           0        0.367528   -3.488065   -2.065062
     29          6           0        0.931463   -4.426326   -2.985902
     30          1           0        0.173001   -5.166426   -3.211527
     31          1           0        1.231763   -3.935757   -3.908744
     32          1           0        1.795664   -4.924823   -2.551866
 ---------------------------------------------------------------------
                    Distance matrix (angstroms):
                    1          2          3          4          5
     1  C    0.000000
     2  C    1.526320   0.000000
     3  O    2.380106   1.229940   0.000000
     4  N    2.524302   1.379057   2.264915   0.000000
     5  C    3.833687   2.401128   2.634119   1.469620   0.000000
     6  C    4.741705   3.393359   3.513600   2.563455   1.539587
     7  O    5.352891   4.182846   4.549888   3.129944   2.385958
     8  N    5.299106   3.934349   3.652799   3.521586   2.500946
     9  C    5.172981   3.812180   3.091340   3.859017   2.958378
    10  C    6.526218   5.264192   5.016224   4.811329   3.840363
    11  H    1.092835   2.132450   2.614003   3.256222   4.449857
    12  H    1.093897   2.142388   2.727011   3.191846   4.393806
    13  H    1.085690   2.222973   3.304502   2.708086   4.162453
    14  H    4.557060   3.233257   3.563078   2.095388   1.093838
    15  H    3.904428   2.391139   2.129697   2.037402   1.087472
    16  H    4.219139   2.889455   2.031063   3.210653   2.616292
    17  H    5.627984   4.433844   3.660003   4.657449   3.933594
    18  H    5.938640   4.513074   3.693953   4.497884   3.391430
    19  H    6.580685   5.473174   5.193230   5.224927   4.486873
    20  H    6.815937   5.603163   5.575030   4.921068   3.991433
    21  H    7.367639   6.026602   5.627050   5.597279   4.457176
    22  C    2.969242   2.515491   3.628575   1.491566   2.575602
    23  H    2.783010   2.762212   3.953185   2.075760   3.332190
    24  H    4.018130   3.379410   4.366207   2.103827   2.633389
    25  C    3.276578   3.201001   4.274375   2.592050   3.597349
    26  H    3.171248   3.584192   4.728977   3.253351   4.470816
    27  H    3.097231   2.912107   3.793089   2.603530   3.476404
    28  O    4.705427   4.496333   5.496787   3.644195   4.288987
    29  C    5.449636   5.571532   6.645575   4.857786   5.660797
    30  H    6.476741   6.479185   7.508306   5.656969   6.274600
    31  H    5.379305   5.693272   6.726044   5.219500   6.124491
    32  H    5.433909   5.701857   6.863062   4.984518   5.921898
                    6          7          8          9         10
     6  C    0.000000
     7  O    1.228041   0.000000
     8  N    1.367141   2.278349   0.000000
     9  C    2.513578   3.635491   1.461332   0.000000
    10  C    2.427433   2.737025   1.457943   2.478224   0.000000
    11  H    5.521987   6.241888   6.000333   5.659903   7.298473
[...]
 Alpha virt. eigenvalues --    2.38514   2.44209   2.45943   2.46820   2.50244
 Alpha virt. eigenvalues --    2.51124   2.54127   2.55490   2.57552   2.58083
 Alpha virt. eigenvalues --    2.58402   2.59409   2.61532   2.64268   2.65279
 Alpha virt. eigenvalues --    2.65845   2.66268   2.68402   2.68975   2.70384
 Alpha virt. eigenvalues --    2.71201   2.72622   2.75130   2.75976   2.78901
 Alpha virt. eigenvalues --    2.79613   2.81753   2.84291   2.84972   2.86038
 Alpha virt. eigenvalues --    2.87059   2.88196   2.89408   2.90612   2.91473
 Alpha virt. eigenvalues --    2.98620   3.00286   3.00726   3.05591   3.08464
 Alpha virt. eigenvalues --    3.12783   3.14249   3.15047   3.18139   3.19007
 Alpha virt. eigenvalues --    3.23704   3.26104   3.28353   3.33515   3.37906
 Alpha virt. eigenvalues --    3.38755   3.41351   3.42254   3.43741   3.43906
 Alpha virt. eigenvalues --    3.44312   3.44422   3.46395   3.47744   3.49612
 Alpha virt. eigenvalues --    3.56423   3.95714   4.02726   4.07914   4.09356
 Alpha virt. eigenvalues --    4.25191   4.34901   4.39263   4.41948   4.46095
 Alpha virt. eigenvalues --    4.50607   4.53393   4.62128   4.69433   4.77150
          Condensed to atoms (all electrons):
              1          2          3          4          5          6
     1  C    5.160711   0.345052  -0.079404  -0.122624   0.007685  -0.000149
     2  C    0.345052   4.370660   0.574812   0.263704  -0.030659  -0.001205
     3  O   -0.079404   0.574812   8.087208  -0.104191   0.007598   0.004331
     4  N   -0.122624   0.263704  -0.104191   7.083841   0.275021  -0.052883
     5  C    0.007685  -0.030659   0.007598   0.275021   5.032419   0.323022
     6  C   -0.000149  -0.001205   0.004331  -0.052883   0.323022   4.412299
     7  O   -0.000014   0.000654  -0.000115   0.001751  -0.084855   0.555597
     8  N   -0.000002   0.000564  -0.000970   0.001002  -0.100003   0.281408
     9  C   -0.000048  -0.000170  -0.011361   0.000585  -0.000747  -0.023386
    10  C    0.000000  -0.000031  -0.000018  -0.000097   0.005642  -0.029753
    11  H    0.367752  -0.023304   0.005150   0.004664  -0.000167   0.000005
    12  H    0.361027  -0.020124   0.001754   0.001442  -0.000169   0.000005
    13  H    0.362732  -0.020574   0.001009   0.001867  -0.000220   0.000002
    14  H   -0.000126   0.006022   0.000883  -0.035991   0.369801  -0.034416
    15  H    0.000104  -0.005772   0.005529  -0.038088   0.357068  -0.031874
    16  H    0.000245  -0.000235   0.025922  -0.001017  -0.002176  -0.003633
    17  H    0.000000   0.000005   0.000024   0.000004   0.000109   0.001570
    18  H    0.000000   0.000008   0.000187  -0.000070  -0.001011  -0.001232
    19  H    0.000000   0.000001   0.000007   0.000011  -0.000176   0.000073
    20  H    0.000000  -0.000004   0.000001  -0.000010   0.001023  -0.003693
    21  H    0.000000   0.000000   0.000000  -0.000001  -0.000128   0.002500
    22  C    0.000460  -0.027167   0.002464   0.256469  -0.034068  -0.000220
    23  H    0.007352  -0.009173   0.000109  -0.032475   0.003622  -0.000093
    24  H   -0.000350   0.003150  -0.000085  -0.033408  -0.008163  -0.000329
    25  C   -0.001372  -0.001041  -0.000003  -0.054850  -0.000412   0.001556
    26  H   -0.001100   0.002364  -0.000064   0.003832  -0.000643   0.000175
    27  H    0.000086  -0.000164   0.000001   0.000887   0.000573   0.000088
    28  O   -0.000007   0.000032   0.000000   0.002090  -0.000058   0.000005
    29  C    0.000001  -0.000003   0.000000  -0.000134   0.000000   0.000002
    30  H    0.000000   0.000000   0.000000   0.000001   0.000000   0.000000
    31  H    0.000000   0.000000   0.000000   0.000007   0.000000   0.000000
    32  H   -0.000001   0.000000   0.000000   0.000012   0.000000   0.000000
              7          8          9         10         11         12
     1  C   -0.000014  -0.000002  -0.000048   0.000000   0.367752   0.361027
     2  C    0.000654   0.000564  -0.000170  -0.000031  -0.023304  -0.020124
     3  O   -0.000115  -0.000970  -0.011361  -0.000018   0.005150   0.001754
     4  N    0.001751   0.001002   0.000585  -0.000097   0.004664   0.001442
     5  C   -0.084855  -0.100003  -0.000747   0.005642  -0.000167  -0.000169
     6  C    0.555597   0.281408  -0.023386  -0.029753   0.000005   0.000005
     7  O    8.119183  -0.092029   0.002592  -0.010920   0.000000   0.000002
     8  N   -0.092029   7.007068   0.278977   0.290660   0.000000   0.000001
     9  C    0.002592   0.278977   4.857198  -0.047385   0.000000   0.000000
    10  C   -0.010920   0.290660  -0.047385   4.818781   0.000000   0.000000
    11  H    0.000000   0.000000   0.000000   0.000000   0.546448  -0.022577
    12  H    0.000002   0.000001   0.000000   0.000000  -0.022577   0.572667
    13  H    0.000000   0.000000   0.000001   0.000000  -0.021731  -0.028952
    14  H   -0.000822   0.002000  -0.000086  -0.000189   0.000002  -0.000008
    15  H    0.003628   0.001979   0.002210  -0.000187  -0.000010  -0.000004
    16  H    0.000052  -0.032158   0.373451   0.003167  -0.000004  -0.000003
    17  H   -0.000071  -0.035244   0.385590  -0.005092   0.000000   0.000000
    18  H   -0.000026  -0.045616   0.378298   0.001378   0.000000   0.000000
    19  H    0.000630  -0.042214  -0.003155   0.387537   0.000000   0.000000
    20  H    0.022386  -0.035869   0.004591   0.384613   0.000000   0.000000
    21  H    0.000745  -0.045763  -0.000612   0.384937   0.000000   0.000000
    22  C   -0.000822  -0.000099   0.000003   0.000001   0.000320  -0.000659
    23  H   -0.000006   0.000002   0.000000   0.000000   0.000030  -0.002436
    24  H    0.000045   0.000001   0.000000   0.000000  -0.000009   0.000189
    25  C   -0.004185  -0.000010   0.000000   0.000001   0.000008   0.000286
    26  H    0.000764  -0.000001   0.000000   0.000000  -0.000029   0.003634
    27  H    0.017096   0.000185  -0.000003  -0.000004   0.000000  -0.000087
    28  O    0.000063   0.000000   0.000000   0.000000   0.000000  -0.000065
    29  C    0.000011   0.000000   0.000000   0.000000   0.000000  -0.000005
    30  H    0.000000   0.000000   0.000000   0.000000   0.000000   0.000000
    31  H   -0.000023   0.000000   0.000000   0.000000   0.000000   0.000000
    32  H    0.000001   0.000000   0.000000   0.000000   0.000000   0.000006
             13         14         15         16         17         18
     1  C    0.362732  -0.000126   0.000104   0.000245   0.000000   0.000000
     2  C   -0.020574   0.006022  -0.005772  -0.000235   0.000005   0.000008
     3  O    0.001009   0.000883   0.005529   0.025922   0.000024   0.000187
     4  N    0.001867  -0.035991  -0.038088  -0.001017   0.000004  -0.000070
     5  C   -0.000220   0.369801   0.357068  -0.002176   0.000109  -0.001011
     6  C    0.000002  -0.034416  -0.031874  -0.003633   0.001570  -0.001232
     7  O    0.000000  -0.000822   0.003628   0.000052  -0.000071  -0.000026
     8  N    0.000000   0.002000   0.001979  -0.032158  -0.035244  -0.045616
     9  C    0.000001  -0.000086   0.002210   0.373451   0.385590   0.378298
    10  C    0.000000  -0.000189  -0.000187   0.003167  -0.005092   0.001378
    11  H   -0.021731   0.000002  -0.000010  -0.000004   0.000000   0.000000
    12  H   -0.028952  -0.000008  -0.000004  -0.000003   0.000000   0.000000
    13  H    0.571862  -0.000002   0.000004  -0.000006   0.000000   0.000000
    14  H   -0.000002   0.590736  -0.026110   0.000114  -0.000019   0.000288
    15  H    0.000004  -0.026110   0.605635  -0.000690   0.000173   0.000545
    16  H   -0.000006   0.000114  -0.000690   0.515413  -0.019769  -0.032911
    17  H    0.000000  -0.000019   0.000173  -0.019769   0.594298  -0.040621
    18  H    0.000000   0.000288   0.000545  -0.032911  -0.040621   0.629299
    19  H    0.000000  -0.000005   0.000000   0.000414   0.005437  -0.000681
    20  H    0.000000  -0.000023  -0.000054  -0.000214   0.000088  -0.000137
    21  H    0.000000   0.000025  -0.000019  -0.000127  -0.002038   0.002718
    22  C   -0.002710  -0.003872   0.002024  -0.000017   0.000000   0.000001
    23  H    0.001996   0.000351  -0.000139   0.000000   0.000000   0.000000
    24  H    0.000168   0.005637   0.000755   0.000000   0.000000   0.000000
    25  C    0.000087  -0.001677  -0.000111   0.000000   0.000000   0.000000
    26  H    0.000075   0.000025   0.000002   0.000000   0.000000   0.000000
    27  H   -0.000006   0.000949   0.000055  -0.000001   0.000000   0.000000
    28  O   -0.000007  -0.000001   0.000001   0.000000   0.000000   0.000000
    29  C    0.000000  -0.000001   0.000000   0.000000   0.000000   0.000000
    30  H    0.000000   0.000000   0.000000   0.000000   0.000000   0.000000
    31  H    0.000000   0.000001   0.000000   0.000000   0.000000   0.000000
    32  H    0.000000   0.000000   0.000000   0.000000   0.000000   0.000000
             19         20         21         22         23         24
     1  C    0.000000   0.000000   0.000000   0.000460   0.007352  -0.000350
     2  C    0.000001  -0.000004   0.000000  -0.027167  -0.009173   0.003150
     3  O    0.000007   0.000001   0.000000   0.002464   0.000109  -0.000085
     4  N    0.000011  -0.000010  -0.000001   0.256469  -0.032475  -0.033408
     5  C   -0.000176   0.001023  -0.000128  -0.034068   0.003622  -0.008163
     6  C    0.000073  -0.003693   0.002500  -0.000220  -0.000093  -0.000329
     7  O    0.000630   0.022386   0.000745  -0.000822  -0.000006   0.000045
     8  N   -0.042214  -0.035869  -0.045763  -0.000099   0.000002   0.000001
     9  C   -0.003155   0.004591  -0.000612   0.000003   0.000000   0.000000
    10  C    0.387537   0.384613   0.384937   0.000001   0.000000   0.000000
    11  H    0.000000   0.000000   0.000000   0.000320   0.000030  -0.000009
    12  H    0.000000   0.000000   0.000000  -0.000659  -0.002436   0.000189
    13  H    0.000000   0.000000   0.000000  -0.002710   0.001996   0.000168
    14  H   -0.000005  -0.000023   0.000025  -0.003872   0.000351   0.005637
    15  H    0.000000  -0.000054  -0.000019   0.002024  -0.000139   0.000755
    16  H    0.000414  -0.000214  -0.000127  -0.000017   0.000000   0.000000
    17  H    0.005437   0.000088  -0.002038   0.000000   0.000000   0.000000
    18  H   -0.000681  -0.000137   0.002718   0.000001   0.000000   0.000000
    19  H    0.604575  -0.027499  -0.043849   0.000000   0.000000   0.000000
    20  H   -0.027499   0.521786  -0.023620   0.000001   0.000000   0.000000
    21  H   -0.043849  -0.023620   0.614983   0.000000   0.000000   0.000000
    22  C    0.000000   0.000001   0.000000   4.894266   0.376264   0.373662
    23  H    0.000000   0.000000   0.000000   0.376264   0.605171  -0.032095
    24  H    0.000000   0.000000   0.000000   0.373662  -0.032095   0.616431
    25  C    0.000000  -0.000001   0.000000   0.357740  -0.044640  -0.047168
    26  H    0.000000   0.000000   0.000000  -0.043758  -0.008020   0.006820
    27  H    0.000000  -0.000007   0.000000  -0.031475   0.006267  -0.007883
    28  O    0.000000   0.000000   0.000000  -0.040035   0.006159   0.005939
    29  C    0.000000   0.000000   0.000000   0.004528  -0.000106  -0.000116
    30  H    0.000000   0.000000   0.000000  -0.000283   0.000006   0.000010
    31  H    0.000000   0.000000   0.000000   0.000061   0.000067  -0.000067
    32  H    0.000000   0.000000   0.000000   0.000027  -0.000075   0.000047
             25         26         27         28         29         30
     1  C   -0.001372  -0.001100   0.000086  -0.000007   0.000001   0.000000
     2  C   -0.001041   0.002364  -0.000164   0.000032  -0.000003   0.000000
     3  O   -0.000003  -0.000064   0.000001   0.000000   0.000000   0.000000
     4  N   -0.054850   0.003832   0.000887   0.002090  -0.000134   0.000001
     5  C   -0.000412  -0.000643   0.000573  -0.000058   0.000000   0.000000
     6  C    0.001556   0.000175   0.000088   0.000005   0.000002   0.000000
     7  O   -0.004185   0.000764   0.017096   0.000063   0.000011   0.000000
     8  N   -0.000010  -0.000001   0.000185   0.000000   0.000000   0.000000
     9  C    0.000000   0.000000  -0.000003   0.000000   0.000000   0.000000
    10  C    0.000001   0.000000  -0.000004   0.000000   0.000000   0.000000
    11  H    0.000008  -0.000029   0.000000   0.000000   0.000000   0.000000
    12  H    0.000286   0.003634  -0.000087  -0.000065  -0.000005   0.000000
    13  H    0.000087   0.000075  -0.000006  -0.000007   0.000000   0.000000
    14  H   -0.001677   0.000025   0.000949  -0.000001  -0.000001   0.000000
    15  H   -0.000111   0.000002   0.000055   0.000001   0.000000   0.000000
    16  H    0.000000   0.000000  -0.000001   0.000000   0.000000   0.000000
    17  H    0.000000   0.000000   0.000000   0.000000   0.000000   0.000000
    18  H    0.000000   0.000000   0.000000   0.000000   0.000000   0.000000
    19  H    0.000000   0.000000   0.000000   0.000000   0.000000   0.000000
    20  H   -0.000001   0.000000  -0.000007   0.000000   0.000000   0.000000
    21  H    0.000000   0.000000   0.000000   0.000000   0.000000   0.000000
    22  C    0.357740  -0.043758  -0.031475  -0.040035   0.004528  -0.000283
    23  H   -0.044640  -0.008020   0.006267   0.006159  -0.000106   0.000006
    24  H   -0.047168   0.006820  -0.007883   0.005939  -0.000116   0.000010
    25  C    4.819816   0.361584   0.364782   0.212827  -0.036737   0.005391
    26  H    0.361584   0.683085  -0.054352  -0.039249  -0.005517  -0.000112
    27  H    0.364782  -0.054352   0.606079  -0.033400  -0.005548  -0.000047
    28  O    0.212827  -0.039249  -0.033400   8.227206   0.261021  -0.033434
    29  C   -0.036737  -0.005517  -0.005548   0.261021   4.704377   0.392861
    30  H    0.005391  -0.000112  -0.000047  -0.033434   0.392861   0.595601
    31  H   -0.006601  -0.002636   0.011872  -0.038144   0.371870  -0.035102
    32  H   -0.009313   0.012591  -0.002564  -0.037687   0.370570  -0.036000
             31         32
     1  C    0.000000  -0.000001
     2  C    0.000000   0.000000
     3  O    0.000000   0.000000
     4  N    0.000007   0.000012
     5  C    0.000000   0.000000
     6  C    0.000000   0.000000
     7  O   -0.000023   0.000001
     8  N    0.000000   0.000000
     9  C    0.000000   0.000000
    10  C    0.000000   0.000000
    11  H    0.000000   0.000000
    12  H    0.000000   0.000006
    13  H    0.000000   0.000000
    14  H    0.000001   0.000000
    15  H    0.000000   0.000000
    16  H    0.000000   0.000000
    17  H    0.000000   0.000000
    18  H    0.000000   0.000000
    19  H    0.000000   0.000000
    20  H    0.000000   0.000000
    21  H    0.000000   0.000000
    22  C    0.000061   0.000027
    23  H    0.000067  -0.000075
    24  H   -0.000067   0.000047
    25  C   -0.006601  -0.009313
    26  H   -0.002636   0.012591
    27  H    0.011872  -0.002564
    28  O   -0.038144  -0.037687
    29  C    0.371870   0.370570
    30  H   -0.035102  -0.036000
    31  H    0.654203  -0.052238
    32  H   -0.052238   0.663807
 Mulliken atomic charges:
              1
     1  C   -0.408009
     2  C    0.572597
     3  O   -0.520779
     4  N   -0.421349
     5  C   -0.119930
     6  C    0.600230
     7  O   -0.531312
     8  N   -0.433870
     9  C   -0.196543
    10  C   -0.183041
    11  H    0.143451
    12  H    0.134081
    13  H    0.134403
    14  H    0.126516
    15  H    0.123347
    16  H    0.174181
    17  H    0.115558
    18  H    0.109584
    19  H    0.118895
    20  H    0.156642
    21  H    0.110250
    22  C   -0.083105
    23  H    0.121864
    24  H    0.116819
    25  C    0.084041
    26  H    0.080532
    27  H    0.126621
    28  O   -0.493258
    29  C   -0.057072
    30  H    0.111109
    31  H    0.096731
    32  H    0.090817
 Sum of Mulliken atomic charges =   0.00000
 Mulliken charges with hydrogens summed into heavy atoms:
              1
     1  C    0.003926
     2  C    0.572597
     3  O   -0.520779
     4  N   -0.421349
     5  C    0.129933
     6  C    0.600230
     7  O   -0.531312
     8  N   -0.433870
     9  C    0.202779
    10  C    0.202746
    22  C    0.155578
    25  C    0.291194
    28  O   -0.493258
    29  C    0.241585
 Sum of Mulliken charges with hydrogens summed into heavy atoms =   0.00000
 Electronic spatial extent (au):  <R**2>=           3691.6724
 Charge=              0.0000 electrons
 Dipole moment (field-independent basis, Debye):
    X=             -0.3756    Y=             -0.0587    Z=              1.0453  Tot=              1.1123
 Quadrupole moment (field-independent basis, Debye-Ang):
   XX=            -75.3975   YY=            -87.0297   ZZ=            -82.4840
   XY=              4.6946   XZ=             -4.5095   YZ=              0.7694
 Traceless Quadrupole moment (field-independent basis, Debye-Ang):
   XX=              6.2396   YY=             -5.3926   ZZ=             -0.8470
   XY=              4.6946   XZ=             -4.5095   YZ=              0.7694
 Octapole moment (field-independent basis, Debye-Ang**2):
  XXX=            -33.9009  YYY=             -1.9669  ZZZ=              0.9867  XYY=             21.9452
  XXY=            -29.2238  XXZ=            -13.9089  XZZ=             -0.8606  YZZ=              0.0277
  YYZ=             -0.1917  XYZ=             -2.8823
 Hexadecapole moment (field-independent basis, Debye-Ang**3):
 XXXX=          -2958.9775 YYYY=          -1271.4165 ZZZZ=           -323.2520 XXXY=            -54.6070
 XXXZ=            -29.8212 YYYX=             25.6547 YYYZ=             -0.8136 ZZZX=              6.6607
 ZZZY=             -5.1123 XXYY=           -693.9300 XXZZ=           -577.6480 YYZZ=           -265.7448
 XXYZ=             28.9600 YYXZ=             -2.4895 ZZXY=              1.7936
 N-N= 9.749108089424D+02 E-N=-3.555998591144D+03  KE= 6.826140568641D+02
 1\1\GINC-C01\FOpt\RB3LYP\6-31G(d,p)\C9H18N2O3\TUU61186\18-Apr-2026\0\\
 # opt b3lyp/6-31g(d,p)\\QM dihedral opt\\0,1\C,3.2623365624,0.05715953
 14,-0.9210993382\C,1.9061610622,0.223991128,-0.2541260061\O,1.47042142
 62,1.3433662528,0.0167166229\N,1.1907976496,-0.9053191434,0.0563072621
 \C,-0.1006920014,-0.6928554952,0.7085906707\C,-1.2121496511,-0.2789191
 328,-0.2762754525\O,-1.456713417,-1.0090813754,-1.237615035\N,-1.94111
 19634,0.8409095909,0.0008406801\C,-1.5802382774,1.8450223752,1.0010473
 1\C,-3.1009466843,1.1387886701,-0.8316306006\H,3.6231631841,1.05342692
 03,-1.1740414171\H,3.2073368458,-0.5499635093,-1.8289601608\H,3.981841
 3996,-0.417048811,-0.244962538\H,-0.4230524547,-1.6499265359,1.1280272
 301\H,0.0286911309,0.0120866506,1.5288437651\H,-0.4966798827,1.9430442
 107,1.0659749506\H,-1.9797381861,2.8094159568,0.6761667509\H,-2.007474
 0723,1.6209191203,1.9874831837\H,-2.9151917163,2.0194920216,-1.4590449
 374\H,-3.2986471305,0.2820824691,-1.4730016679\H,-3.9738647622,1.34059
 2692,-0.2003874224\C,1.6326820809,-2.2669038928,-0.2391479199\H,2.7232
 923579,-2.2986582322,-0.2718445918\H,1.3280118735,-2.9195141161,0.5859
 156838\C,1.086804985,-2.8382240652,-1.5502821546\H,1.3539178395,-2.176
 6093846,-2.3917191121\H,-0.0088404606,-2.8891028934,-1.5213894861\O,1.
 6762777135,-4.1180764428,-1.7019490855\C,1.2141872266,-4.7982183331,-2
 .8501481556\H,1.7135862009,-5.7699119579,-2.8759308855\H,0.1252529131,
 -4.9566075135,-2.8211787224\H,1.4554888783,-4.2505438153,-3.7748421004
 \\Version=EM64L-G09RevC.01\State=1-A\HF=-688.9992953\RMSD=8.558e-09\RM
 SF=5.403e-06\Dipole=-0.1317731,-0.0716747,0.411106\Quadrupole=2.005802
 6,-3.1981439,1.1923413,-4.5443169,-3.4320093,1.5747463\PG=C01 [X(C9H18
 N2O3)]\\@


 ABOVE ALL I AM AN OPTIMIST FOR NUMBER THEORY,
 AND I HOLD THE HOPE THAT WE MAY NOT BE FAR FROM
 A TIME WHEN IRREFUTABLE ARITHMETIC WILL CELEBRATE
 ITS TRIUMPHS IN PHYSICS AND CHEMISTRY.
   -- HERMANN MINKOWSKI, 1905
 Job cpu time:  0 days  1 hours 57 minutes 26.7 seconds.
 File lengths (MBytes):  RWF=     50 Int=      0 D2E=      0 Chk=      7 Scr=      1
 Normal termination of Gaussian 09 at Sat Apr 18 17:34:56 2026.
