 Entering Gaussian System, Link 0=/data/opt/apps/g09-C01/g09
 Initial command:
 /data/opt/apps/g09-C01/l1.exe /tmp/g09-tuu61186-61893721586134adx/Gau-618954.inp -scrdir=/tmp/g09-tuu61186-61893721586134adx/
 Entering Link 1 = /data/opt/apps/g09-C01/l1.exe PID=    618955.
  
 Copyright (c) 1988,1990,1992,1993,1995,1998,2003,2009,2011,
            Gaussian, Inc.  All Rights Reserved.
  
 This is part of the Gaussian(R) 09 program.  It is based on
 the Gaussian(R) 03 system (copyright 2003, Gaussian, Inc.),
 the Gaussian(R) 98 system (copyright 1998, Gaussian, Inc.),
 the Gaussian(R) 94 system (copyright 1995, Gaussian, Inc.),
 the Gaussian 92(TM) system (copyright 1992, Gaussian, Inc.),
 the Gaussian 90(TM) system (copyright 1990, Gaussian, Inc.),
 the Gaussian 88(TM) system (copyright 1988, Gaussian, Inc.),
 the Gaussian 86(TM) system (copyright 1986, Carnegie Mellon
 University), and the Gaussian 82(TM) system (copyright 1983,
 Carnegie Mellon University). Gaussian is a federally registered
 trademark of Gaussian, Inc.
  
 This software contains proprietary and confidential information,
 including trade secrets, belonging to Gaussian, Inc.
  
 This software is provided under written license and may be
 used, copied, transmitted, or stored only in accord with that
 written license.
  
 The following legend is applicable only to US Government
 contracts under FAR:
  
                    RESTRICTED RIGHTS LEGEND
  
 Use, reproduction and disclosure by the US Government is
 subject to restrictions as set forth in subparagraphs (a)
 and (c) of the Commercial Computer Software - Restricted
 Rights clause in FAR 52.227-19.
  
 Gaussian, Inc.
 340 Quinnipiac St., Bldg. 40, Wallingford CT 06492
  
  
 ---------------------------------------------------------------
 Warning -- This program may not be used in any manner that
 competes with the business of Gaussian, Inc. or will provide
 assistance to any competitor of Gaussian, Inc.  The licensee
 of this program is prohibited from giving any competitor of
 Gaussian, Inc. access to this program.  By using this program,
 the user acknowledges that Gaussian, Inc. is engaged in the
 business of creating and licensing software in the field of
 computational chemistry and represents and warrants to the
 licensee that it is not a competitor of Gaussian, Inc. and that
 it will not use this program in any manner prohibited above.
 ---------------------------------------------------------------
  

 Cite this work as:
 Gaussian 09, Revision C.01,
 M. J. Frisch, G. W. Trucks, H. B. Schlegel, G. E. Scuseria, 
 M. A. Robb, J. R. Cheeseman, G. Scalmani, V. Barone, B. Mennucci, 
 G. A. Petersson, H. Nakatsuji, M. Caricato, X. Li, H. P. Hratchian, 
 A. F. Izmaylov, J. Bloino, G. Zheng, J. L. Sonnenberg, M. Hada, 
 M. Ehara, K. Toyota, R. Fukuda, J. Hasegawa, M. Ishida, T. Nakajima, 
 Y. Honda, O. Kitao, H. Nakai, T. Vreven, J. A. Montgomery, Jr., 
 J. E. Peralta, F. Ogliaro, M. Bearpark, J. J. Heyd, E. Brothers, 
 K. N. Kudin, V. N. Staroverov, T. Keith, R. Kobayashi, J. Normand, 
 K. Raghavachari, A. Rendell, J. C. Burant, S. S. Iyengar, J. Tomasi, 
 M. Cossi, N. Rega, J. M. Millam, M. Klene, J. E. Knox, J. B. Cross, 
 V. Bakken, C. Adamo, J. Jaramillo, R. Gomperts, R. E. Stratmann, 
 O. Yazyev, A. J. Austin, R. Cammi, C. Pomelli, J. W. Ochterski, 
 R. L. Martin, K. Morokuma, V. G. Zakrzewski, G. A. Voth, 
 P. Salvador, J. J. Dannenberg, S. Dapprich, A. D. Daniels, 
 O. Farkas, J. B. Foresman, J. V. Ortiz, J. Cioslowski, 
 and D. J. Fox, Gaussian, Inc., Wallingford CT, 2010.
 
 ******************************************
 Gaussian 09:  EM64L-G09RevC.01 23-Sep-2011
                22-Apr-2026 
 ******************************************
 %nprocshared=8
 Will use up to    8 processors via shared memory.
 %mem=14GB
 ----------------------
 # opt b3lyp/6-31g(d,p)
 ----------------------
 1/14=-1,18=20,19=15,26=3,38=1/1,3;
 2/9=110,12=2,17=6,18=5,40=1/2;
 3/5=1,6=6,7=101,11=2,16=1,25=1,30=1,71=1,74=-5/1,2,3;
 4//1;
 5/5=2,38=5/2;
 6/7=2,8=2,9=2,10=2,28=1/1;
 7//1,2,3,16;
 1/14=-1,18=20,19=15/3(2);
 2/9=110/2;
 99//99;
 2/9=110/2;
 3/5=1,6=6,7=101,11=2,16=1,25=1,30=1,71=1,74=-5/1,2,3;
 4/5=5,16=3/1;
 5/5=2,38=5/2;
 7//1,2,3,16;
 1/14=-1,18=20,19=15/3(-5);
 2/9=110/2;
 6/7=2,8=2,9=2,10=2,19=2,28=1/1;
 99/9=1/99;
 ---------------
 QM dihedral opt
 ---------------
 Charge =  0 Multiplicity = 1
 Symbolic Z-Matrix:
 C                     3.31478  -0.16116  -0.93045 
 C                     2.13588   0.24298  -0.06186 
 O                     1.88457   1.42065   0.18117 
 N                     1.39479  -0.78901   0.44366 
 C                     0.16007  -0.54709   1.17383 
 C                    -1.05587  -0.74583   0.25489 
 O                    -1.2857   -1.88605  -0.14934 
 N                    -1.82327   0.33408  -0.07688 
 C                    -1.529     1.72119   0.27685 
 C                    -3.03337   0.11314  -0.85981 
 H                     4.21      0.34293  -0.55888 
 H                     3.1398    0.19359  -1.95042 
 H                     3.49277  -1.23928  -0.95428 
 H                     0.06174  -1.29756   1.96344 
 H                     0.23942   0.43554   1.63239 
 H                    -0.45785   1.88108   0.40346 
 H                    -1.85911   2.36387  -0.54509 
 H                    -2.06485   2.03478   1.183 
 H                    -2.95717   0.60471  -1.83744 
 H                    -3.16049  -0.95813  -1.00464 
 H                    -3.90469   0.52274  -0.33488 
 C                     1.56826  -2.13808  -0.11384 
 H                     1.28661  -2.13636  -1.1461 
 H                     2.59322  -2.43193  -0.02428 
 H                     0.95124  -2.82794   0.42308 
 

 GradGradGradGradGradGradGradGradGradGradGradGradGradGradGradGradGradGrad
 Berny optimization.
 Initialization pass.
                           ----------------------------
                           !    Initial Parameters    !
                           ! (Angstroms and Degrees)  !
 --------------------------                            --------------------------
 ! Name  Definition              Value          Derivative Info.                !
 --------------------------------------------------------------------------------
 ! R1    R(1,2)                  1.5191         estimate D2E/DX2                !
 ! R2    R(1,11)                 1.0925         estimate D2E/DX2                !
 ! R3    R(1,12)                 1.094          estimate D2E/DX2                !
 ! R4    R(1,13)                 1.093          estimate D2E/DX2                !
 ! R5    R(2,3)                  1.2285         estimate D2E/DX2                !
 ! R6    R(2,4)                  1.3674         estimate D2E/DX2                !
 ! R7    R(4,5)                  1.4547         estimate D2E/DX2                !
 ! R8    R(4,22)                 1.47           estimate D2E/DX2                !
 ! R9    R(5,6)                  1.537          estimate D2E/DX2                !
 ! R10   R(5,14)                 1.0938         estimate D2E/DX2                !
 ! R11   R(5,15)                 1.0873         estimate D2E/DX2                !
 ! R12   R(6,7)                  1.2314         estimate D2E/DX2                !
 ! R13   R(6,8)                  1.3657         estimate D2E/DX2                !
 ! R14   R(8,9)                  1.4614         estimate D2E/DX2                !
 ! R15   R(8,10)                 1.4581         estimate D2E/DX2                !
 ! R16   R(9,16)                 1.0904         estimate D2E/DX2                !
 ! R17   R(9,17)                 1.0943         estimate D2E/DX2                !
 ! R18   R(9,18)                 1.0984         estimate D2E/DX2                !
 ! R19   R(10,19)                1.0969         estimate D2E/DX2                !
 ! R20   R(10,20)                1.0885         estimate D2E/DX2                !
 ! R21   R(10,21)                1.0966         estimate D2E/DX2                !
 ! R22   R(22,23)                1.07           estimate D2E/DX2                !
 ! R23   R(22,24)                1.07           estimate D2E/DX2                !
 ! R24   R(22,25)                1.07           estimate D2E/DX2                !
 ! A1    A(2,1,11)             108.5839         estimate D2E/DX2                !
 ! A2    A(2,1,12)             108.8262         estimate D2E/DX2                !
 ! A3    A(2,1,13)             113.6577         estimate D2E/DX2                !
 ! A4    A(11,1,12)            107.3703         estimate D2E/DX2                !
 ! A5    A(11,1,13)            109.2147         estimate D2E/DX2                !
 ! A6    A(12,1,13)            109.0011         estimate D2E/DX2                !
 ! A7    A(1,2,3)              121.7981         estimate D2E/DX2                !
 ! A8    A(1,2,4)              115.5445         estimate D2E/DX2                !
 ! A9    A(3,2,4)              122.6488         estimate D2E/DX2                !
 ! A10   A(2,4,5)              121.3366         estimate D2E/DX2                !
 ! A11   A(2,4,22)             119.2394         estimate D2E/DX2                !
 ! A12   A(5,4,22)             116.3046         estimate D2E/DX2                !
 ! A13   A(4,5,6)              110.4789         estimate D2E/DX2                !
 ! A14   A(4,5,14)             108.9379         estimate D2E/DX2                !
 ! A15   A(4,5,15)             107.4603         estimate D2E/DX2                !
 ! A16   A(6,5,14)             105.7699         estimate D2E/DX2                !
 ! A17   A(6,5,15)             115.2617         estimate D2E/DX2                !
 ! A18   A(14,5,15)            108.7954         estimate D2E/DX2                !
 ! A19   A(5,6,7)              117.6226         estimate D2E/DX2                !
 ! A20   A(5,6,8)              119.1775         estimate D2E/DX2                !
 ! A21   A(7,6,8)              123.1998         estimate D2E/DX2                !
 ! A22   A(6,8,9)              125.3498         estimate D2E/DX2                !
 ! A23   A(6,8,10)             118.4865         estimate D2E/DX2                !
 ! A24   A(9,8,10)             116.1605         estimate D2E/DX2                !
 ! A25   A(8,9,16)             111.4129         estimate D2E/DX2                !
 ! A26   A(8,9,17)             108.3535         estimate D2E/DX2                !
 ! A27   A(8,9,18)             111.8637         estimate D2E/DX2                !
 ! A28   A(16,9,17)            107.3034         estimate D2E/DX2                !
 ! A29   A(16,9,18)            109.9725         estimate D2E/DX2                !
 ! A30   A(17,9,18)            107.7447         estimate D2E/DX2                !
 ! A31   A(8,10,19)            110.6707         estimate D2E/DX2                !
 ! A32   A(8,10,20)            108.5113         estimate D2E/DX2                !
 ! A33   A(8,10,21)            110.2298         estimate D2E/DX2                !
 ! A34   A(19,10,20)           109.3045         estimate D2E/DX2                !
 ! A35   A(19,10,21)           108.3275         estimate D2E/DX2                !
 ! A36   A(20,10,21)           109.7866         estimate D2E/DX2                !
 ! A37   A(4,22,23)            109.4712         estimate D2E/DX2                !
 ! A38   A(4,22,24)            109.4712         estimate D2E/DX2                !
 ! A39   A(4,22,25)            109.4712         estimate D2E/DX2                !
 ! A40   A(23,22,24)           109.4713         estimate D2E/DX2                !
 ! A41   A(23,22,25)           109.4712         estimate D2E/DX2                !
 ! A42   A(24,22,25)           109.4712         estimate D2E/DX2                !
 ! D1    D(11,1,2,3)            50.7314         estimate D2E/DX2                !
 ! D2    D(11,1,2,4)          -128.2253         estimate D2E/DX2                !
 ! D3    D(12,1,2,3)           -65.8459         estimate D2E/DX2                !
 ! D4    D(12,1,2,4)           115.1974         estimate D2E/DX2                !
 ! D5    D(13,1,2,3)           172.4918         estimate D2E/DX2                !
 ! D6    D(13,1,2,4)            -6.4649         estimate D2E/DX2                !
 ! D7    D(1,2,4,5)           -173.5014         estimate D2E/DX2                !
 ! D8    D(1,2,4,22)           -14.2041         estimate D2E/DX2                !
 ! D9    D(3,2,4,5)              7.5516         estimate D2E/DX2                !
 ! D10   D(3,2,4,22)           166.849          estimate D2E/DX2                !
 ! D11   D(2,4,5,6)             98.8685         estimate D2E/DX2                !
 ! D12   D(2,4,5,14)          -145.3555         estimate D2E/DX2                !
 ! D13   D(2,4,5,15)           -27.6451         estimate D2E/DX2                !
 ! D14   D(22,4,5,6)           -61.0042         estimate D2E/DX2                !
 ! D15   D(22,4,5,14)           54.7718         estimate D2E/DX2                !
 ! D16   D(22,4,5,15)          172.4821         estimate D2E/DX2                !
 ! D17   D(2,4,22,23)          -62.6446         estimate D2E/DX2                !
 ! D18   D(2,4,22,24)           57.3554         estimate D2E/DX2                !
 ! D19   D(2,4,22,25)          177.3554         estimate D2E/DX2                !
 ! D20   D(5,4,22,23)           97.6717         estimate D2E/DX2                !
 ! D21   D(5,4,22,24)         -142.3283         estimate D2E/DX2                !
 ! D22   D(5,4,22,25)          -22.3283         estimate D2E/DX2                !
 ! D23   D(4,5,6,7)             67.1323         estimate D2E/DX2                !
 ! D24   D(4,5,6,8)           -112.7217         estimate D2E/DX2                !
 ! D25   D(14,5,6,7)           -50.6074         estimate D2E/DX2                !
 ! D26   D(14,5,6,8)           129.5386         estimate D2E/DX2                !
 ! D27   D(15,5,6,7)          -170.8362         estimate D2E/DX2                !
 ! D28   D(15,5,6,8)             9.3099         estimate D2E/DX2                !
 ! D29   D(5,6,8,9)              5.559          estimate D2E/DX2                !
 ! D30   D(5,6,8,10)          -175.1187         estimate D2E/DX2                !
 ! D31   D(7,6,8,9)           -174.2863         estimate D2E/DX2                !
 ! D32   D(7,6,8,10)             5.036          estimate D2E/DX2                !
 ! D33   D(6,8,9,16)            27.1806         estimate D2E/DX2                !
 ! D34   D(6,8,9,17)           145.0013         estimate D2E/DX2                !
 ! D35   D(6,8,9,18)           -96.3709         estimate D2E/DX2                !
 ! D36   D(10,8,9,16)         -152.1557         estimate D2E/DX2                !
 ! D37   D(10,8,9,17)          -34.335          estimate D2E/DX2                !
 ! D38   D(10,8,9,18)           84.2927         estimate D2E/DX2                !
 ! D39   D(6,8,10,19)         -116.2309         estimate D2E/DX2                !
 ! D40   D(6,8,10,20)            3.6986         estimate D2E/DX2                !
 ! D41   D(6,8,10,21)          123.9532         estimate D2E/DX2                !
 ! D42   D(9,8,10,19)           63.1533         estimate D2E/DX2                !
 ! D43   D(9,8,10,20)         -176.9172         estimate D2E/DX2                !
 ! D44   D(9,8,10,21)          -56.6626         estimate D2E/DX2                !
 --------------------------------------------------------------------------------
 Trust Radius=3.00D-01 FncErr=1.00D-07 GrdErr=1.00D-06
 Number of steps in this run=    120 maximum allowed number of steps=    150.
 GradGradGradGradGradGradGradGradGradGradGradGradGradGradGradGradGradGrad

                          Input orientation:                          
 ---------------------------------------------------------------------
 Center     Atomic      Atomic             Coordinates (Angstroms)
 Number     Number       Type             X           Y           Z
 ---------------------------------------------------------------------
      1          6           0        3.314784   -0.161156   -0.930453
      2          6           0        2.135881    0.242982   -0.061863
      3          8           0        1.884566    1.420647    0.181173
      4          7           0        1.394786   -0.789009    0.443660
      5          6           0        0.160067   -0.547089    1.173830
      6          6           0       -1.055869   -0.745831    0.254885
      7          8           0       -1.285700   -1.886051   -0.149344
      8          7           0       -1.823274    0.334076   -0.076882
      9          6           0       -1.528996    1.721191    0.276846
     10          6           0       -3.033375    0.113139   -0.859810
     11          1           0        4.210001    0.342934   -0.558878
     12          1           0        3.139798    0.193590   -1.950419
     13          1           0        3.492771   -1.239275   -0.954281
     14          1           0        0.061744   -1.297564    1.963440
     15          1           0        0.239419    0.435544    1.632393
     16          1           0       -0.457848    1.881076    0.403463
     17          1           0       -1.859107    2.363874   -0.545085
     18          1           0       -2.064853    2.034777    1.182996
     19          1           0       -2.957172    0.604709   -1.837437
     20          1           0       -3.160492   -0.958129   -1.004637
     21          1           0       -3.904693    0.522738   -0.334879
     22          6           0        1.568265   -2.138084   -0.113835
     23          1           0        1.286611   -2.136364   -1.146099
     24          1           0        2.593221   -2.431929   -0.024279
     25          1           0        0.951236   -2.827940    0.423077
 ---------------------------------------------------------------------
                    Distance matrix (angstroms):
                    1          2          3          4          5
     1  C    0.000000
     2  C    1.519075   0.000000
     3  O    2.404857   1.228463   0.000000
     4  N    2.443108   1.367399   2.278456   0.000000
     5  C    3.811718   2.460689   2.798437   1.454718   0.000000
     6  C    4.566123   3.356389   3.653111   2.458294   1.537029
     7  O    4.974922   4.030838   4.592829   2.956376   2.373573
     8  N    5.231967   3.960231   3.872377   3.447926   2.504870
     9  C    5.335073   3.966251   3.428102   3.857127   2.966919
    10  C    6.354475   5.232092   5.194167   4.703351   3.843132
    11  H    1.092515   2.135179   2.667731   3.195593   4.494039
    12  H    1.093981   2.139377   2.761333   3.121247   4.380449
    13  H    1.092972   2.198783   3.309194   2.560961   4.014336
    14  H    4.499812   3.282861   3.726637   2.084553   1.093784
    15  H    4.047481   2.550324   2.404782   2.060944   1.087265
    16  H    4.492527   3.102791   2.397564   3.250111   2.621311
    17  H    5.770046   4.548804   3.928386   4.637468   3.937695
    18  H    6.182983   4.733537   4.120524   4.526531   3.408282
    19  H    6.383306   5.405802   5.308763   5.107386   4.484590
    20  H    6.524559   5.512083   5.702397   4.782962   3.992591
    21  H    7.276212   6.053209   5.881162   5.514642   4.465759
    22  C    2.761420   2.448340   3.584919   1.470000   2.484425
    23  H    2.839267   2.749202   3.843374   2.086720   3.029350
    24  H    2.549159   2.713986   3.922594   2.086720   3.302775
    25  H    3.811842   3.327028   4.356617   2.086720   2.528213
                    6          7          8          9         10
     6  C    0.000000
     7  O    1.231391   0.000000
     8  N    1.365716   2.285432   0.000000
     9  C    2.512077   3.640471   1.461441   0.000000
    10  C    2.427119   2.748798   1.458127   2.478099   0.000000
    11  H    5.438475   5.944646   6.052504   5.961050   7.253266
    12  H    4.832132   5.210932   5.306784   5.393692   6.269287
    13  H    4.732409   4.888765   5.612985   5.958035   6.665473
    14  H    2.114859   2.574059   3.221561   3.806302   4.420473
    15  H    2.229562   3.300057   2.680787   2.572487   4.126282
    16  H    2.698211   3.896432   2.118568   1.090391   3.369688
    17  H    3.309896   4.306654   2.083405   1.094342   2.558078
    18  H    3.100197   4.213680   2.130267   1.098447   2.967117
    19  H    3.133165   3.442000   2.111521   2.785033   1.096906
    20  H    2.461890   2.259958   2.078142   3.388618   1.088462
    21  H    3.173781   3.563118   2.105816   2.730281   1.096594
    22  C    2.993393   2.865292   4.197080   4.963835   5.176830
    23  H    3.063257   2.770010   4.113111   4.983286   4.878985
    24  H    4.029481   3.919139   5.211428   5.859330   6.231698
    25  H    2.896884   2.493733   4.236297   5.183390   5.115943
                   11         12         13         14         15
    11  H    0.000000
    12  H    1.761824   0.000000
    13  H    1.781614   1.780445   0.000000
    14  H    5.124584   5.197716   4.504269   0.000000
    15  H    4.536052   4.615981   4.481094   1.773365   0.000000
    16  H    5.008073   4.618596   5.214159   3.578723   2.021389
    17  H    6.396754   5.627979   6.464729   4.836165   3.586597
    18  H    6.728317   6.347964   6.795186   4.029393   2.840629
    19  H    7.285026   6.111860   6.766240   5.213364   4.720861
    20  H    7.497709   6.474150   6.659391   4.394030   4.522792
    21  H    8.119776   7.234857   7.629602   4.932382   4.588183
    22  C    3.651340   3.358491   2.284279   2.700213   3.382116
    23  H    3.877881   3.083816   2.389290   3.445738   3.928274
    24  H    3.255708   3.301834   1.759692   3.412651   4.062923
    25  H    4.651691   4.421870   3.298541   2.346479   3.552388
                   16         17         18         19         20
    16  H    0.000000
    17  H    1.759649   0.000000
    18  H    1.792697   1.771130   0.000000
    19  H    3.591290   2.443477   3.458951   0.000000
    20  H    4.165107   3.597290   3.865702   1.782514   0.000000
    21  H    3.777694   2.760143   2.824043   1.778256   1.787562
    22  C    4.530605   5.674547   5.682789   5.565366   4.954489
    23  H    4.645869   5.523486   5.835701   5.099129   4.602713
    24  H    5.300377   6.564616   6.565564   6.581457   6.019834
    25  H    4.915357   5.982500   5.772373   5.671742   4.737180
                   21         22         23         24         25
    21  H    0.000000
    22  C    6.089508   0.000000
    23  H    5.888848   1.070000   0.000000
    24  H    7.144887   1.070000   1.747303   0.000000
    25  H    5.948243   1.070000   1.747303   1.747303   0.000000
 Stoichiometry    C7H14N2O2
 Framework group  C1[X(C7H14N2O2)]
 Deg. of freedom    69
 Full point group                 C1      NOp   1
 Largest Abelian subgroup         C1      NOp   1
 Largest concise Abelian subgroup C1      NOp   1
                         Standard orientation:                         
 ---------------------------------------------------------------------
 Center     Atomic      Atomic             Coordinates (Angstroms)
 Number     Number       Type             X           Y           Z
 ---------------------------------------------------------------------
      1          6           0       -3.144630   -0.407912   -0.900130
      2          6           0       -1.919514   -0.690551   -0.047606
      3          8           0       -1.528010   -1.835650    0.163562
      4          7           0       -1.302728    0.409265    0.481318
      5          6           0       -0.042542    0.297793    1.199446
      6          6           0        1.134160    0.663225    0.280592
      7          8           0        1.223613    1.832577   -0.094827
      8          7           0        2.022118   -0.308787   -0.082590
      9          6           0        1.897682   -1.729596    0.236204
     10          6           0        3.191406    0.074535   -0.864870
     11          1           0       -3.970673   -1.024337   -0.537832
     12          1           0       -2.936338   -0.713334   -1.929755
     13          1           0       -3.449835    0.641569   -0.895085
     14          1           0       -0.028302    1.034398    2.007885
     15          1           0       -0.000936   -0.698590    1.632615
     16          1           0        0.854157   -2.019141    0.363374
     17          1           0        2.295748   -2.307339   -0.603643
     18          1           0        2.473845   -1.999938    1.131490
     19          1           0        3.166904   -0.397697   -1.854617
     20          1           0        3.189034    1.156639   -0.982317
     21          1           0        4.109199   -0.241475   -0.354661
     22          6           0       -1.639715    1.741737   -0.040082
     23          1           0       -1.367623    1.799734   -1.073282
     24          1           0       -2.691656    1.908984    0.061649
     25          1           0       -1.105156    2.486386    0.511864
 ---------------------------------------------------------------------
 Rotational constants (GHZ):      1.7447635      0.7470011      0.5984616
 Standard basis: 6-31G(d,p) (6D, 7F)
 There are   235 symmetry adapted basis functions of A   symmetry.
 Integral buffers will be    131072 words long.
 Raffenetti 2 integral format.
 Two-electron integral symmetry is turned on.
   235 basis functions,   406 primitive gaussians,   235 cartesian basis functions
    43 alpha electrons       43 beta electrons
       nuclear repulsion energy       667.5494805675 Hartrees.
 NAtoms=   25 NActive=   25 NUniq=   25 SFac= 1.00D+00 NAtFMM=   60 NAOKFM=F Big=F
 One-electron integrals computed using PRISM.
 NBasis=   235 RedAO= T  NBF=   235
 NBsUse=   235 1.00D-06 NBFU=   235
 Harris functional with IExCor=  402 diagonalized for initial guess.
 ExpMin= 1.61D-01 ExpMax= 5.48D+03 ExpMxC= 8.25D+02 IAcc=1 IRadAn=         1 AccDes= 0.00D+00
 HarFok:  IExCor=  402 AccDes= 0.00D+00 IRadAn=         1 IDoV= 1
 ScaDFX=  1.000000  1.000000  1.000000  1.000000
 FoFCou: FMM=F IPFlag=           0 FMFlag=      100000 FMFlg1=           0
         NFxFlg=           0 DoJE=T BraDBF=F KetDBF=T FulRan=T
         Omega=  0.000000  0.000000  1.000000  0.000000  0.000000 ICntrl=     500 IOpCl=  0
         NMat0=    1 NMatS0=    1 NMatT0=    0 NMatD0=    1 NMtDS0=    0 NMtDT0=    0
         I1Cent=           4 NGrid=           0.
 Petite list used in FoFCou.
 Initial guess orbital symmetries:
       Occupied  (A) (A) (A) (A) (A) (A) (A) (A) (A) (A) (A) (A)
                 (A) (A) (A) (A) (A) (A) (A) (A) (A) (A) (A) (A)
                 (A) (A) (A) (A) (A) (A) (A) (A) (A) (A) (A) (A)
                 (A) (A) (A) (A) (A) (A) (A)
       Virtual   (A) (A) (A) (A) (A) (A) (A) (A) (A) (A) (A) (A)
                 (A) (A) (A) (A) (A) (A) (A) (A) (A) (A) (A) (A)
                 (A) (A) (A) (A) (A) (A) (A) (A) (A) (A) (A) (A)
                 (A) (A) (A) (A) (A) (A) (A) (A) (A) (A) (A) (A)
                 (A) (A) (A) (A) (A) (A) (A) (A) (A) (A) (A) (A)
                 (A) (A) (A) (A) (A) (A) (A) (A) (A) (A) (A) (A)
                 (A) (A) (A) (A) (A) (A) (A) (A) (A) (A) (A) (A)
                 (A) (A) (A) (A) (A) (A) (A) (A) (A) (A) (A) (A)
                 (A) (A) (A) (A) (A) (A) (A) (A) (A) (A) (A) (A)
                 (A) (A) (A) (A) (A) (A) (A) (A) (A) (A) (A) (A)
                 (A) (A) (A) (A) (A) (A) (A) (A) (A) (A) (A) (A)
                 (A) (A) (A) (A) (A) (A) (A) (A) (A) (A) (A) (A)
                 (A) (A) (A) (A) (A) (A) (A) (A) (A) (A) (A) (A)
                 (A) (A) (A) (A) (A) (A) (A) (A) (A) (A) (A) (A)
                 (A) (A) (A) (A) (A) (A) (A) (A) (A) (A) (A) (A)
                 (A) (A) (A) (A) (A) (A) (A) (A) (A) (A) (A) (A)
 The electronic state of the initial guess is 1-A.
 Requested convergence on RMS density matrix=1.00D-08 within 128 cycles.
 Requested convergence on MAX density matrix=1.00D-06.
 Requested convergence on             energy=1.00D-06.
 No special actions if energy rises.
 Keep R1 ints in memory in canonical form, NReq=391461030.
 Integral accuracy reduced to 1.0D-05 until final iterations.
 Initial convergence to 1.0D-05 achieved.  Increase integral accuracy.
 SCF Done:  E(RB3LYP) =  -535.156538349     A.U. after   15 cycles
             Convg  =    0.5119D-08             -V/T =  2.0091

 **********************************************************************

            Population analysis using the SCF density.

 **********************************************************************

 Orbital symmetries:
       Occupied  (A) (A) (A) (A) (A) (A) (A) (A) (A) (A) (A) (A)
                 (A) (A) (A) (A) (A) (A) (A) (A) (A) (A) (A) (A)
                 (A) (A) (A) (A) (A) (A) (A) (A) (A) (A) (A) (A)
                 (A) (A) (A) (A) (A) (A) (A)
       Virtual   (A) (A) (A) (A) (A) (A) (A) (A) (A) (A) (A) (A)
                 (A) (A) (A) (A) (A) (A) (A) (A) (A) (A) (A) (A)
                 (A) (A) (A) (A) (A) (A) (A) (A) (A) (A) (A) (A)
                 (A) (A) (A) (A) (A) (A) (A) (A) (A) (A) (A) (A)
                 (A) (A) (A) (A) (A) (A) (A) (A) (A) (A) (A) (A)
                 (A) (A) (A) (A) (A) (A) (A) (A) (A) (A) (A) (A)
                 (A) (A) (A) (A) (A) (A) (A) (A) (A) (A) (A) (A)
                 (A) (A) (A) (A) (A) (A) (A) (A) (A) (A) (A) (A)
                 (A) (A) (A) (A) (A) (A) (A) (A) (A) (A) (A) (A)
                 (A) (A) (A) (A) (A) (A) (A) (A) (A) (A) (A) (A)
                 (A) (A) (A) (A) (A) (A) (A) (A) (A) (A) (A) (A)
                 (A) (A) (A) (A) (A) (A) (A) (A) (A) (A) (A) (A)
                 (A) (A) (A) (A) (A) (A) (A) (A) (A) (A) (A) (A)
                 (A) (A) (A) (A) (A) (A) (A) (A) (A) (A) (A) (A)
                 (A) (A) (A) (A) (A) (A) (A) (A) (A) (A) (A) (A)
                 (A) (A) (A) (A) (A) (A) (A) (A) (A) (A) (A) (A)
 The electronic state is 1-A.
 Alpha  occ. eigenvalues --  -19.10777 -19.10756 -14.36862 -14.36460 -10.28341
 Alpha  occ. eigenvalues --  -10.28316 -10.22548 -10.21725 -10.21328 -10.20755
 Alpha  occ. eigenvalues --  -10.18761  -1.03343  -1.02476  -0.93286  -0.93079
 Alpha  occ. eigenvalues --   -0.76587  -0.72720  -0.71797  -0.69948  -0.67527
 Alpha  occ. eigenvalues --   -0.56015  -0.53101  -0.51448  -0.49499  -0.47780
 Alpha  occ. eigenvalues --   -0.46751  -0.46575  -0.45387  -0.42194  -0.41278
 Alpha  occ. eigenvalues --   -0.40782  -0.40438  -0.40093  -0.39611  -0.39145
 Alpha  occ. eigenvalues --   -0.37958  -0.36661  -0.35804  -0.34943  -0.26169
 Alpha  occ. eigenvalues --   -0.24778  -0.23933  -0.22902
 Alpha virt. eigenvalues --    0.01524   0.02957   0.09118   0.10301   0.12390
 Alpha virt. eigenvalues --    0.13015   0.14170   0.14480   0.15515   0.16146
 Alpha virt. eigenvalues --    0.16353   0.16774   0.17579   0.17930   0.18416
 Alpha virt. eigenvalues --    0.18686   0.20682   0.21723   0.22564   0.23391
 Alpha virt. eigenvalues --    0.26434   0.27836   0.31893   0.34287   0.39155
 Alpha virt. eigenvalues --    0.42886   0.46433   0.49753   0.50575   0.51687
 Alpha virt. eigenvalues --    0.51994   0.53050   0.54095   0.55614   0.59397
 Alpha virt. eigenvalues --    0.60173   0.61109   0.62178   0.62695   0.67572
 Alpha virt. eigenvalues --    0.68985   0.69229   0.70076   0.71802   0.73674
 Alpha virt. eigenvalues --    0.75280   0.77167   0.79181   0.79591   0.80426
 Alpha virt. eigenvalues --    0.81473   0.82216   0.84408   0.85431   0.85679
 Alpha virt. eigenvalues --    0.86318   0.86657   0.87971   0.90228   0.91271
 Alpha virt. eigenvalues --    0.92395   0.93214   0.93972   0.95423   0.97482
 Alpha virt. eigenvalues --    0.98224   1.00125   1.00426   1.04779   1.07848
 Alpha virt. eigenvalues --    1.08353   1.12796   1.14965   1.21789   1.22764
 Alpha virt. eigenvalues --    1.26342   1.27173   1.28823   1.31606   1.33395
 Alpha virt. eigenvalues --    1.36752   1.38369   1.42110   1.42509   1.48816
 Alpha virt. eigenvalues --    1.50969   1.53393   1.57529   1.61326   1.62907
 Alpha virt. eigenvalues --    1.67513   1.70582   1.73050   1.73498   1.77225
 Alpha virt. eigenvalues --    1.77985   1.80169   1.82920   1.83626   1.84908
 Alpha virt. eigenvalues --    1.85295   1.86619   1.87872   1.89994   1.91307
 Alpha virt. eigenvalues --    1.94364   1.95303   1.98250   1.99825   2.01777
 Alpha virt. eigenvalues --    2.02360   2.03171   2.03893   2.04137   2.04908
 Alpha virt. eigenvalues --    2.05959   2.08370   2.08709   2.08927   2.09544
 Alpha virt. eigenvalues --    2.10903   2.11565   2.13948   2.16131   2.17695
 Alpha virt. eigenvalues --    2.20403   2.24237   2.27871   2.29471   2.30026
 Alpha virt. eigenvalues --    2.32143   2.34581   2.35926   2.36606   2.40790
 Alpha virt. eigenvalues --    2.42852   2.45290   2.46509   2.49109   2.54964
 Alpha virt. eigenvalues --    2.56748   2.58432   2.60669   2.61959   2.64164
 Alpha virt. eigenvalues --    2.66184   2.67798   2.69296   2.70027   2.70761
 Alpha virt. eigenvalues --    2.73727   2.74165   2.80798   2.82128   2.85014
 Alpha virt. eigenvalues --    2.85397   2.87849   2.88300   2.89369   2.91117
 Alpha virt. eigenvalues --    2.94108   2.99345   3.00743   3.07921   3.11656
 Alpha virt. eigenvalues --    3.12769   3.16279   3.18529   3.23830   3.25851
 Alpha virt. eigenvalues --    3.30409   3.34455   3.40285   3.42683   3.43598
 Alpha virt. eigenvalues --    3.44184   3.45471   3.46981   3.48831   3.50814
 Alpha virt. eigenvalues --    3.51440   4.00851   4.06491   4.09180   4.20624
 Alpha virt. eigenvalues --    4.29196   4.38530   4.49867   4.52903   4.54423
 Alpha virt. eigenvalues --    4.64286   4.73463
          Condensed to atoms (all electrons):
              1          2          3          4          5          6
     1  C    5.136439   0.355586  -0.076968  -0.116099   0.007401  -0.000212
     2  C    0.355586   4.363924   0.557976   0.285152  -0.026033  -0.001873
     3  O   -0.076968   0.557976   8.103482  -0.094536  -0.001236   0.000361
     4  N   -0.116099   0.285152  -0.094536   7.030787   0.294442  -0.054215
     5  C    0.007401  -0.026033  -0.001236   0.294442   4.998294   0.337010
     6  C   -0.000212  -0.001873   0.000361  -0.054215   0.337010   4.422713
     7  O   -0.000010  -0.000319   0.000000  -0.004712  -0.082888   0.544350
     8  N    0.000011   0.001356  -0.000097   0.000377  -0.094271   0.294991
     9  C   -0.000076  -0.000592  -0.009235   0.001138   0.000084  -0.024501
    10  C   -0.000001  -0.000033   0.000002  -0.000157   0.005789  -0.030041
    11  H    0.373298  -0.022721   0.000968   0.002454  -0.000146  -0.000003
    12  H    0.373263  -0.022630  -0.000161   0.001377  -0.000165   0.000044
    13  H    0.352450  -0.022310   0.003479   0.001118  -0.000131  -0.000021
    14  H   -0.000177   0.004369   0.000418  -0.037590   0.372375  -0.039708
    15  H    0.000573  -0.006091   0.012801  -0.037833   0.356817  -0.025763
    16  H    0.000296   0.000570   0.026569  -0.002369  -0.000820  -0.002752
    17  H    0.000001  -0.000021   0.000014   0.000019  -0.000025   0.002101
    18  H    0.000000   0.000039   0.000100  -0.000063  -0.000206  -0.001783
    19  H    0.000000  -0.000002   0.000000   0.000021  -0.000196   0.001259
    20  H    0.000000   0.000000   0.000000  -0.000018   0.001056  -0.003365
    21  H    0.000000   0.000001   0.000000  -0.000002  -0.000133   0.001318
    22  C   -0.005300  -0.028665   0.002686   0.271743  -0.045874  -0.004737
    23  H   -0.000789  -0.003762   0.000174  -0.044187   0.001079   0.003000
    24  H   -0.008522  -0.005297  -0.000043  -0.040001   0.002825   0.000243
    25  H    0.000623   0.002153  -0.000098  -0.028488  -0.004614  -0.003088
              7          8          9         10         11         12
     1  C   -0.000010   0.000011  -0.000076  -0.000001   0.373298   0.373263
     2  C   -0.000319   0.001356  -0.000592  -0.000033  -0.022721  -0.022630
     3  O    0.000000  -0.000097  -0.009235   0.000002   0.000968  -0.000161
     4  N   -0.004712   0.000377   0.001138  -0.000157   0.002454   0.001377
     5  C   -0.082888  -0.094271   0.000084   0.005789  -0.000146  -0.000165
     6  C    0.544350   0.294991  -0.024501  -0.030041  -0.000003   0.000044
     7  O    8.133141  -0.091087   0.002652  -0.011527   0.000000   0.000001
     8  N   -0.091087   6.990957   0.280343   0.288612   0.000000   0.000000
     9  C    0.002652   0.280343   4.865473  -0.047896   0.000000   0.000002
    10  C   -0.011527   0.288612  -0.047896   4.824813   0.000000   0.000000
    11  H    0.000000   0.000000   0.000000   0.000000   0.550741  -0.021956
    12  H    0.000001   0.000000   0.000002   0.000000  -0.021956   0.552843
    13  H   -0.000001  -0.000001   0.000002   0.000000  -0.026721  -0.026560
    14  H   -0.000427   0.003278   0.000123  -0.000187   0.000011  -0.000003
    15  H    0.003473   0.000781  -0.000123  -0.000186  -0.000010  -0.000015
    16  H    0.000028  -0.029001   0.370388   0.003537  -0.000001  -0.000009
    17  H   -0.000056  -0.038297   0.385581  -0.004744   0.000000   0.000000
    18  H   -0.000030  -0.045578   0.378144   0.000710   0.000000   0.000000
    19  H    0.000625  -0.041799  -0.003617   0.385719   0.000000   0.000000
    20  H    0.023612  -0.036440   0.004454   0.383871   0.000000   0.000000
    21  H    0.000692  -0.046303   0.000106   0.386710   0.000000   0.000000
    22  C    0.002282  -0.000130  -0.000019   0.000006   0.000208   0.000077
    23  H    0.000925  -0.000119  -0.000001   0.000018  -0.000098   0.001182
    24  H    0.000700   0.000005   0.000000   0.000000   0.000971  -0.000382
    25  H    0.009420   0.000257  -0.000008  -0.000005  -0.000021  -0.000033
             13         14         15         16         17         18
     1  C    0.352450  -0.000177   0.000573   0.000296   0.000001   0.000000
     2  C   -0.022310   0.004369  -0.006091   0.000570  -0.000021   0.000039
     3  O    0.003479   0.000418   0.012801   0.026569   0.000014   0.000100
     4  N    0.001118  -0.037590  -0.037833  -0.002369   0.000019  -0.000063
     5  C   -0.000131   0.372375   0.356817  -0.000820  -0.000025  -0.000206
     6  C   -0.000021  -0.039708  -0.025763  -0.002752   0.002101  -0.001783
     7  O   -0.000001  -0.000427   0.003473   0.000028  -0.000056  -0.000030
     8  N   -0.000001   0.003278   0.000781  -0.029001  -0.038297  -0.045578
     9  C    0.000002   0.000123  -0.000123   0.370388   0.385581   0.378144
    10  C    0.000000  -0.000187  -0.000186   0.003537  -0.004744   0.000710
    11  H   -0.026721   0.000011  -0.000010  -0.000001   0.000000   0.000000
    12  H   -0.026560  -0.000003  -0.000015  -0.000009   0.000000   0.000000
    13  H    0.616577  -0.000016  -0.000043  -0.000009   0.000000   0.000000
    14  H   -0.000016   0.592802  -0.024946   0.000002  -0.000018   0.000116
    15  H   -0.000043  -0.024946   0.580366  -0.001117   0.000140   0.000555
    16  H   -0.000009   0.000002  -0.001117   0.512971  -0.021628  -0.029214
    17  H    0.000000  -0.000018   0.000140  -0.021628   0.598983  -0.043185
    18  H    0.000000   0.000116   0.000555  -0.029214  -0.043185   0.623662
    19  H    0.000000  -0.000002   0.000001   0.000146   0.006561  -0.000943
    20  H    0.000000  -0.000027  -0.000049  -0.000187   0.000059  -0.000118
    21  H    0.000000   0.000020  -0.000016  -0.000059  -0.002467   0.003941
    22  C   -0.003438  -0.006339   0.005907  -0.000014   0.000003  -0.000002
    23  H   -0.000865  -0.000605  -0.000377   0.000015   0.000000   0.000000
    24  H   -0.001789   0.000705  -0.000101   0.000001   0.000000   0.000000
    25  H    0.000602   0.004700   0.000370  -0.000007   0.000000   0.000000
             19         20         21         22         23         24
     1  C    0.000000   0.000000   0.000000  -0.005300  -0.000789  -0.008522
     2  C   -0.000002   0.000000   0.000001  -0.028665  -0.003762  -0.005297
     3  O    0.000000   0.000000   0.000000   0.002686   0.000174  -0.000043
     4  N    0.000021  -0.000018  -0.000002   0.271743  -0.044187  -0.040001
     5  C   -0.000196   0.001056  -0.000133  -0.045874   0.001079   0.002825
     6  C    0.001259  -0.003365   0.001318  -0.004737   0.003000   0.000243
     7  O    0.000625   0.023612   0.000692   0.002282   0.000925   0.000700
     8  N   -0.041799  -0.036440  -0.046303  -0.000130  -0.000119   0.000005
     9  C   -0.003617   0.004454   0.000106  -0.000019  -0.000001   0.000000
    10  C    0.385719   0.383871   0.386710   0.000006   0.000018   0.000000
    11  H    0.000000   0.000000   0.000000   0.000208  -0.000098   0.000971
    12  H    0.000000   0.000000   0.000000   0.000077   0.001182  -0.000382
    13  H    0.000000   0.000000   0.000000  -0.003438  -0.000865  -0.001789
    14  H   -0.000002  -0.000027   0.000020  -0.006339  -0.000605   0.000705
    15  H    0.000001  -0.000049  -0.000016   0.005907  -0.000377  -0.000101
    16  H    0.000146  -0.000187  -0.000059  -0.000014   0.000015   0.000001
    17  H    0.006561   0.000059  -0.002467   0.000003   0.000000   0.000000
    18  H   -0.000943  -0.000118   0.003941  -0.000002   0.000000   0.000000
    19  H    0.606746  -0.026402  -0.043696   0.000001  -0.000001   0.000000
    20  H   -0.026402   0.518666  -0.023776  -0.000005   0.000013   0.000000
    21  H   -0.043696  -0.023776   0.610236  -0.000001   0.000000   0.000000
    22  C    0.000001  -0.000005  -0.000001   4.823824   0.397082   0.378843
    23  H   -0.000001   0.000013   0.000000   0.397082   0.591184  -0.047296
    24  H    0.000000   0.000000   0.000000   0.378843  -0.047296   0.623318
    25  H    0.000000  -0.000008   0.000000   0.386565  -0.030969  -0.022361
             25
     1  C    0.000623
     2  C    0.002153
     3  O   -0.000098
     4  N   -0.028488
     5  C   -0.004614
     6  C   -0.003088
     7  O    0.009420
     8  N    0.000257
     9  C   -0.000008
    10  C   -0.000005
    11  H   -0.000021
    12  H   -0.000033
    13  H    0.000602
    14  H    0.004700
    15  H    0.000370
    16  H   -0.000007
    17  H    0.000000
    18  H    0.000000
    19  H    0.000000
    20  H   -0.000008
    21  H    0.000000
    22  C    0.386565
    23  H   -0.030969
    24  H   -0.022361
    25  H    0.544443
 Mulliken atomic charges:
              1
     1  C   -0.391788
     2  C    0.569224
     3  O   -0.526657
     4  N   -0.428358
     5  C   -0.120433
     6  C    0.584672
     7  O   -0.530841
     8  N   -0.437845
     9  C   -0.202421
    10  C   -0.185011
    11  H    0.143025
    12  H    0.143125
    13  H    0.107675
    14  H    0.131127
    15  H    0.134888
    16  H    0.172667
    17  H    0.116982
    18  H    0.113854
    19  H    0.115579
    20  H    0.158664
    21  H    0.113430
    22  C   -0.174704
    23  H    0.134397
    24  H    0.118183
    25  H    0.140565
 Sum of Mulliken atomic charges =   0.00000
 Mulliken charges with hydrogens summed into heavy atoms:
              1
     1  C    0.002038
     2  C    0.569224
     3  O   -0.526657
     4  N   -0.428358
     5  C    0.145583
     6  C    0.584672
     7  O   -0.530841
     8  N   -0.437845
     9  C    0.201083
    10  C    0.202661
    22  C    0.218440
 Sum of Mulliken charges with hydrogens summed into heavy atoms =   0.00000
 Electronic spatial extent (au):  <R**2>=           2022.2358
 Charge=              0.0000 electrons
 Dipole moment (field-independent basis, Debye):
    X=              0.2669    Y=              0.1037    Z=             -0.1438  Tot=              0.3204
 Quadrupole moment (field-independent basis, Debye-Ang):
   XX=            -57.7366   YY=            -74.8727   ZZ=            -63.5794
   XY=            -10.0861   XZ=              1.4714   YZ=              1.5810
 Traceless Quadrupole moment (field-independent basis, Debye-Ang):
   XX=              7.6596   YY=             -9.4765   ZZ=              1.8169
   XY=            -10.0861   XZ=              1.4714   YZ=              1.5810
 Octapole moment (field-independent basis, Debye-Ang**2):
  XXX=              2.0863  YYY=              2.6240  ZZZ=              0.2948  XYY=              2.3529
  XXY=             -1.3480  XXZ=             -9.5696  XZZ=              1.7969  YZZ=             -0.0121
  YYZ=              1.2677  XYZ=             -1.2207
 Hexadecapole moment (field-independent basis, Debye-Ang**3):
 XXXX=          -1613.3152 YYYY=           -683.6414 ZZZZ=           -239.3716 XXXY=              6.8000
 XXXZ=             -7.7742 YYYX=            -38.2818 YYYZ=              4.6189 ZZZX=              0.2286
 ZZZY=              3.1925 XXYY=           -401.9799 XXZZ=           -324.4056 YYZZ=           -144.1719
 XXYZ=              0.9723 YYXZ=              1.3028 ZZXY=              5.0031
 N-N= 6.675494805675D+02 E-N=-2.581930507583D+03  KE= 5.303330980714D+02
 Calling FoFJK, ICntrl=      2127 FMM=F ISym2X=0 I1Cent= 0 IOpClX= 0 NMat=1 NMatS=1 NMatT=0.
 ***** Axes restored to original set *****
 -------------------------------------------------------------------
 Center     Atomic                   Forces (Hartrees/Bohr)
 Number     Number              X              Y              Z
 -------------------------------------------------------------------
      1        6           0.005077558    0.001523167   -0.001018191
      2        6          -0.002053457    0.001098584    0.003215523
      3        8          -0.000242047    0.003982165    0.000313622
      4        7           0.002298893   -0.012997014   -0.003560843
      5        6           0.001048138    0.006692646    0.000660497
      6        6          -0.000320071    0.002209997    0.001657100
      7        8          -0.004788918   -0.000246649   -0.000634259
      8        7           0.000087533   -0.000241030   -0.000474705
      9        6           0.000159451    0.000193487    0.000036805
     10        6           0.000007720    0.000012645   -0.000129969
     11        1          -0.000392249    0.001447804   -0.000125395
     12        1          -0.000101372    0.000104869   -0.000228016
     13        1           0.003782985    0.008694481   -0.003288660
     14        1           0.000466537   -0.000250366    0.000259189
     15        1          -0.001011097    0.000168771    0.000166479
     16        1           0.000107829   -0.000118707   -0.000124270
     17        1          -0.000029825   -0.000025573    0.000001947
     18        1          -0.000014236   -0.000063856   -0.000024741
     19        1          -0.000007775   -0.000002241    0.000018682
     20        1          -0.000060603    0.000000863   -0.000003857
     21        1           0.000042984    0.000023661   -0.000001911
     22        6          -0.001010706    0.010666498    0.010598995
     23        1          -0.005582125   -0.006728750   -0.015548416
     24        1           0.011154050   -0.008810873    0.003459685
     25        1          -0.008619197   -0.007334579    0.004774712
 -------------------------------------------------------------------
 Cartesian Forces:  Max     0.015548416 RMS     0.004227517

 GradGradGradGradGradGradGradGradGradGradGradGradGradGradGradGradGradGrad
 Berny optimization.
 Internal  Forces:  Max     0.035653526 RMS     0.007408668
 Search for a local minimum.
 Step number   1 out of a maximum of  120
 All quantities printed in internal units (Hartrees-Bohrs-Radians)
 Mixed Optimization -- RFO/linear search
 Second derivative matrix not updated -- first step.
 ITU=  0
     Eigenvalues ---    0.00276   0.00514   0.00766   0.00879   0.00923
     Eigenvalues ---    0.00968   0.01076   0.01165   0.01238   0.01396
     Eigenvalues ---    0.02123   0.02145   0.05075   0.06575   0.06854
     Eigenvalues ---    0.07108   0.07474   0.07537   0.07537   0.07542
     Eigenvalues ---    0.07642   0.07647   0.09624   0.13052   0.16000
     Eigenvalues ---    0.16000   0.16000   0.16000   0.16000   0.16000
     Eigenvalues ---    0.16000   0.16000   0.16000   0.16000   0.16000
     Eigenvalues ---    0.16000   0.21991   0.23478   0.24043   0.24996
     Eigenvalues ---    0.24998   0.24999   0.25000   0.25000   0.25000
     Eigenvalues ---    0.28784   0.30456   0.33854   0.34027   0.34062
     Eigenvalues ---    0.34316   0.34357   0.34379   0.34471   0.34524
     Eigenvalues ---    0.34767   0.34991   0.35131   0.35740   0.36784
     Eigenvalues ---    0.37200   0.37230   0.37230   0.37230   0.37633
     Eigenvalues ---    0.51480   0.51809   0.90509   0.91730
 RFO step:  Lambda=-2.35838338D-02 EMin= 2.76122583D-03
 Linear search not attempted -- first point.
 Iteration  1 RMS(Cart)=  0.18773022 RMS(Int)=  0.01110343
 Iteration  2 RMS(Cart)=  0.03549476 RMS(Int)=  0.00069560
 Iteration  3 RMS(Cart)=  0.00062794 RMS(Int)=  0.00063496
 Iteration  4 RMS(Cart)=  0.00000041 RMS(Int)=  0.00063496
 Variable       Old X    -DE/DX   Delta X   Delta X   Delta X     New X
                                 (Linear)    (Quad)   (Total)
    R1        2.87064   0.00602   0.00000   0.01835   0.01835   2.88898
    R2        2.06455   0.00031   0.00000   0.00083   0.00083   2.06538
    R3        2.06733   0.00026   0.00000   0.00071   0.00071   2.06804
    R4        2.06542  -0.00789   0.00000  -0.02142  -0.02142   2.04399
    R5        2.32146   0.00393   0.00000   0.00418   0.00418   2.32563
    R6        2.58401   0.01643   0.00000   0.03052   0.03052   2.61453
    R7        2.74902   0.00576   0.00000   0.01440   0.01440   2.76342
    R8        2.77790   0.00948   0.00000   0.02489   0.02489   2.80279
    R9        2.90456   0.00339   0.00000   0.01088   0.01088   2.91544
   R10        2.06695   0.00032   0.00000   0.00087   0.00087   2.06782
   R11        2.05463   0.00015   0.00000   0.00039   0.00039   2.05502
   R12        2.32699   0.00133   0.00000   0.00143   0.00143   2.32843
   R13        2.58083  -0.00017   0.00000  -0.00031  -0.00031   2.58052
   R14        2.76172   0.00000   0.00000   0.00001   0.00001   2.76173
   R15        2.75546   0.00007   0.00000   0.00018   0.00018   2.75564
   R16        2.06054   0.00007   0.00000   0.00020   0.00020   2.06074
   R17        2.06801  -0.00001   0.00000  -0.00003  -0.00003   2.06798
   R18        2.07576  -0.00003   0.00000  -0.00008  -0.00008   2.07569
   R19        2.07285  -0.00002   0.00000  -0.00004  -0.00004   2.07281
   R20        2.05689   0.00001   0.00000   0.00001   0.00001   2.05691
   R21        2.07226  -0.00003   0.00000  -0.00007  -0.00007   2.07219
   R22        2.02201   0.01646   0.00000   0.04158   0.04158   2.06359
   R23        2.02201   0.01339   0.00000   0.03383   0.03383   2.05584
   R24        2.02201   0.01209   0.00000   0.03055   0.03055   2.05255
    A1        1.89515  -0.00304   0.00000  -0.01889  -0.01905   1.87610
    A2        1.89938  -0.00191   0.00000  -0.01235  -0.01261   1.88677
    A3        1.98370   0.01002   0.00000   0.05918   0.05908   2.04279
    A4        1.87397  -0.00029   0.00000  -0.01157  -0.01192   1.86205
    A5        1.90616  -0.00238   0.00000  -0.00890  -0.00891   1.89725
    A6        1.90243  -0.00290   0.00000  -0.01112  -0.01129   1.89114
    A7        2.12578  -0.01872   0.00000  -0.06840  -0.06841   2.05737
    A8        2.01663   0.03565   0.00000   0.13034   0.13034   2.14697
    A9        2.14063  -0.01693   0.00000  -0.06186  -0.06186   2.07876
   A10        2.11772  -0.03293   0.00000  -0.12370  -0.12472   1.99300
   A11        2.08112   0.03394   0.00000   0.13494   0.13551   2.21663
   A12        2.02990  -0.00058   0.00000   0.00147   0.00159   2.03149
   A13        1.92822   0.01081   0.00000   0.04661   0.04638   1.97460
   A14        1.90132  -0.00191   0.00000   0.00501   0.00419   1.90552
   A15        1.87554  -0.00380   0.00000  -0.02197  -0.02158   1.85395
   A16        1.84603  -0.00073   0.00000   0.01121   0.01049   1.85652
   A17        2.01170  -0.00537   0.00000  -0.03454  -0.03423   1.97746
   A18        1.89884   0.00105   0.00000  -0.00459  -0.00460   1.89424
   A19        2.05290   0.00628   0.00000   0.02295   0.02290   2.07580
   A20        2.08004  -0.00314   0.00000  -0.01145  -0.01150   2.06854
   A21        2.15024  -0.00314   0.00000  -0.01146  -0.01150   2.13874
   A22        2.18777  -0.00049   0.00000  -0.00181  -0.00181   2.18595
   A23        2.06798   0.00040   0.00000   0.00144   0.00144   2.06942
   A24        2.02738   0.00010   0.00000   0.00035   0.00035   2.02773
   A25        1.94452  -0.00021   0.00000  -0.00118  -0.00118   1.94334
   A26        1.89113   0.00000   0.00000  -0.00004  -0.00004   1.89109
   A27        1.95239  -0.00003   0.00000  -0.00011  -0.00011   1.95228
   A28        1.87280   0.00006   0.00000   0.00021   0.00021   1.87301
   A29        1.91938   0.00015   0.00000   0.00089   0.00089   1.92027
   A30        1.88050   0.00004   0.00000   0.00027   0.00027   1.88077
   A31        1.93157   0.00000   0.00000  -0.00004  -0.00004   1.93153
   A32        1.89388   0.00010   0.00000   0.00062   0.00062   1.89450
   A33        1.92387  -0.00007   0.00000  -0.00045  -0.00045   1.92343
   A34        1.90772  -0.00001   0.00000   0.00005   0.00005   1.90778
   A35        1.89067   0.00000   0.00000  -0.00015  -0.00015   1.89052
   A36        1.91614  -0.00001   0.00000  -0.00004  -0.00004   1.91609
   A37        1.91063   0.00907   0.00000   0.05375   0.05283   1.96347
   A38        1.91063   0.00515   0.00000   0.03244   0.03138   1.94201
   A39        1.91063  -0.00411   0.00000  -0.03112  -0.03079   1.87985
   A40        1.91063  -0.00242   0.00000   0.00426   0.00226   1.91289
   A41        1.91063  -0.00484   0.00000  -0.03520  -0.03474   1.87589
   A42        1.91063  -0.00284   0.00000  -0.02414  -0.02394   1.88669
    D1        0.88543  -0.00197   0.00000  -0.03204  -0.03190   0.85353
    D2       -2.23795  -0.00213   0.00000  -0.03649  -0.03634  -2.27429
    D3       -1.14923   0.00109   0.00000  -0.00116  -0.00125  -1.15048
    D4        2.01057   0.00093   0.00000  -0.00560  -0.00569   2.00489
    D5        3.01055  -0.00053   0.00000  -0.01764  -0.01770   2.99285
    D6       -0.11283  -0.00069   0.00000  -0.02209  -0.02214  -0.13498
    D7       -3.02817  -0.00152   0.00000  -0.03705  -0.03600  -3.06417
    D8       -0.24791   0.00004   0.00000   0.00508   0.00404  -0.24386
    D9        0.13180  -0.00167   0.00000  -0.04149  -0.04045   0.09135
   D10        2.91206  -0.00011   0.00000   0.00065  -0.00041   2.91166
   D11        1.72558   0.00090   0.00000  -0.02836  -0.02977   1.69582
   D12       -2.53693   0.00497   0.00000   0.01423   0.01319  -2.52374
   D13       -0.48250   0.00309   0.00000  -0.00067  -0.00181  -0.48431
   D14       -1.06472  -0.00768   0.00000  -0.09664  -0.09566  -1.16038
   D15        0.95595  -0.00360   0.00000  -0.05405  -0.05270   0.90325
   D16        3.01038  -0.00548   0.00000  -0.06894  -0.06770   2.94268
   D17       -1.09336   0.00113   0.00000   0.00328   0.00060  -1.09276
   D18        1.00104   0.00687   0.00000   0.06128   0.06039   1.06143
   D19        3.09544   0.00402   0.00000   0.03252   0.03089   3.12633
   D20        1.70469  -0.00447   0.00000   0.01595   0.01674   1.72143
   D21       -2.48410   0.00127   0.00000   0.07396   0.07654  -2.40756
   D22       -0.38970  -0.00157   0.00000   0.04520   0.04704  -0.34267
   D23        1.17168   0.00256   0.00000   0.07020   0.07063   1.24231
   D24       -1.96736   0.00197   0.00000   0.05297   0.05326  -1.91410
   D25       -0.88327  -0.00033   0.00000   0.03383   0.03366  -0.84960
   D26        2.26088  -0.00092   0.00000   0.01661   0.01629   2.27717
   D27       -2.98165   0.00209   0.00000   0.05243   0.05238  -2.92928
   D28        0.16249   0.00151   0.00000   0.03520   0.03501   0.19750
   D29        0.09702   0.00048   0.00000   0.01308   0.01298   0.11000
   D30       -3.05640   0.00040   0.00000   0.01065   0.01055  -3.04585
   D31       -3.04187  -0.00015   0.00000  -0.00521  -0.00511  -3.04698
   D32        0.08789  -0.00024   0.00000  -0.00764  -0.00753   0.08036
   D33        0.47439   0.00002   0.00000   0.00024   0.00024   0.47464
   D34        2.53075  -0.00003   0.00000  -0.00021  -0.00021   2.53054
   D35       -1.68199   0.00000   0.00000   0.00004   0.00004  -1.68195
   D36       -2.65562   0.00010   0.00000   0.00262   0.00261  -2.65300
   D37       -0.59926   0.00006   0.00000   0.00216   0.00216  -0.59710
   D38        1.47119   0.00008   0.00000   0.00241   0.00241   1.47360
   D39       -2.02861   0.00002   0.00000   0.00122   0.00122  -2.02739
   D40        0.06455   0.00007   0.00000   0.00165   0.00165   0.06621
   D41        2.16339   0.00007   0.00000   0.00172   0.00172   2.16511
   D42        1.10223  -0.00006   0.00000  -0.00100  -0.00100   1.10123
   D43       -3.08779  -0.00002   0.00000  -0.00057  -0.00057  -3.08836
   D44       -0.98895  -0.00001   0.00000  -0.00051  -0.00051  -0.98946
         Item               Value     Threshold  Converged?
 Maximum Force            0.035654     0.000450     NO 
 RMS     Force            0.007409     0.000300     NO 
 Maximum Displacement     0.809386     0.001800     NO 
 RMS     Displacement     0.215822     0.001200     NO 
 Predicted change in Energy=-1.331097D-02
 GradGradGradGradGradGradGradGradGradGradGradGradGradGradGradGradGradGrad

                          Input orientation:                          
 ---------------------------------------------------------------------
 Center     Atomic      Atomic             Coordinates (Angstroms)
 Number     Number       Type             X           Y           Z
 ---------------------------------------------------------------------
      1          6           0        3.294989    0.099599   -0.940488
      2          6           0        2.038612    0.175793   -0.072793
      3          8           0        1.607405    1.290949    0.218826
      4          7           0        1.383735   -0.945179    0.405497
      5          6           0        0.147017   -0.653451    1.129272
      6          6           0       -1.115473   -0.795142    0.253924
      7          8           0       -1.480175   -1.921174   -0.088477
      8          7           0       -1.795997    0.335640   -0.096717
      9          6           0       -1.359115    1.702657    0.179373
     10          6           0       -3.054320    0.196110   -0.820297
     11          1           0        4.037816    0.771243   -0.502708
     12          1           0        3.050900    0.502129   -1.928420
     13          1           0        3.743760   -0.875786   -1.071496
     14          1           0        0.034387   -1.367377    1.950851
     15          1           0        0.268979    0.341716    1.550414
     16          1           0       -0.272914    1.764925    0.253354
     17          1           0       -1.665539    2.337916   -0.657348
     18          1           0       -1.821796    2.103517    1.091366
     19          1           0       -2.975810    0.636241   -1.821932
     20          1           0       -3.286460   -0.863527   -0.909998
     21          1           0       -3.860110    0.708244   -0.280988
     22          6           0        1.571483   -2.347080   -0.040854
     23          1           0        1.303715   -2.491093   -1.089680
     24          1           0        2.593998   -2.680078    0.123794
     25          1           0        0.912684   -2.973935    0.553107
 ---------------------------------------------------------------------
                    Distance matrix (angstroms):
                    1          2          3          4          5
     1  C    0.000000
     2  C    1.528785   0.000000
     3  O    2.368811   1.230673   0.000000
     4  N    2.560494   1.383547   2.255027   0.000000
     5  C    3.841968   2.389715   2.596602   1.462337   0.000000
     6  C    4.656110   3.316280   3.430317   2.508292   1.542787
     7  O    5.254678   4.096264   4.466019   3.065707   2.395368
     8  N    5.165830   3.838013   3.548990   3.464594   2.501329
     9  C    5.048224   3.733557   2.995213   3.819084   2.953301
    10  C    6.351180   5.147536   4.900014   4.743569   3.843323
    11  H    1.092954   2.129837   2.587973   3.288630   4.453249
    12  H    1.094358   2.138825   2.704918   3.212680   4.372343
    13  H    1.081635   2.238471   3.305099   2.784966   4.222484
    14  H    4.598194   3.239356   3.541327   2.094543   1.094243
    15  H    3.926824   2.407059   2.113186   2.051735   1.087470
    16  H    4.114426   2.823980   1.939444   3.179984   2.606169
    17  H    5.449502   4.328650   3.546263   4.605044   3.927549
    18  H    5.858806   4.469244   3.630567   4.476650   3.387998
    19  H    6.355144   5.330659   5.059565   5.144703   4.486084
    20  H    6.651618   5.489763   5.464973   4.852620   3.998940
    21  H    7.211161   5.926363   5.521149   5.541028   4.460954
    22  C    3.125068   2.565953   3.647463   1.483174   2.503334
    23  H    3.270950   2.947272   4.013510   2.152163   3.104614
    24  H    3.057890   2.916008   4.092855   2.134002   3.332555
    25  H    4.165671   3.402977   4.334008   2.087949   2.510550
                    6          7          8          9         10
     6  C    0.000000
     7  O    1.232150   0.000000
     8  N    1.365550   2.278820   0.000000
     9  C    2.510761   3.635733   1.461447   0.000000
    10  C    2.428098   2.737952   1.458223   2.478456   0.000000
    11  H    5.438974   6.153773   5.864124   5.519024   7.122502
    12  H    4.878955   5.457878   5.184136   5.033119   6.212511
    13  H    5.037398   5.417440   5.753837   5.852552   6.886650
    14  H    2.128190   2.599894   3.231579   3.808555   4.434396
    15  H    2.211343   3.296388   2.641439   2.526382   4.084824
    16  H    2.695153   3.893797   2.117826   1.090497   3.368995
    17  H    3.308933   4.300910   2.083372   1.094327   2.557851
    18  H    3.098778   4.207953   2.130163   1.098405   2.968463
    19  H    3.133510   3.432515   2.111560   2.784989   1.096882
    20  H    2.464260   2.248595   2.078679   3.389202   1.088469
    21  H    3.174796   3.551758   2.105553   2.730525   1.096556
    22  C    3.116912   3.081604   4.305813   5.003726   5.336047
    23  H    3.245611   3.012849   4.310986   5.127251   5.126996
    24  H    4.162943   4.149684   5.330594   5.902420   6.408374
    25  H    2.991667   2.691786   4.325796   5.212606   5.260470
                   11         12         13         14         15
    11  H    0.000000
    12  H    1.754731   0.000000
    13  H    1.767114   1.764376   0.000000
    14  H    5.159563   5.257675   4.809957   0.000000
    15  H    4.313228   4.457253   4.520047   1.770983   0.000000
    16  H    4.487920   4.171634   4.986205   3.575926   2.000384
    17  H    5.916640   5.218288   6.305546   4.839592   3.549843
    18  H    6.216999   5.952035   6.673052   4.028800   2.772365
    19  H    7.137893   6.029143   6.928347   5.225865   4.689148
    20  H    7.515542   6.562342   7.032085   4.412069   4.488584
    21  H    7.901289   7.107643   7.807233   4.945343   4.531859
    22  C    4.002505   3.724187   2.818814   2.699884   3.385007
    23  H    4.296822   3.565882   2.926323   3.481202   4.008189
    24  H    3.793249   3.814025   2.450743   3.407775   4.070896
    25  H    4.990747   4.776292   3.880278   2.303503   3.521721
                   16         17         18         19         20
    16  H    0.000000
    17  H    1.759858   0.000000
    18  H    1.793306   1.771260   0.000000
    19  H    3.589761   2.443105   3.460050   0.000000
    20  H    4.164566   3.597284   3.867046   1.782535   0.000000
    21  H    3.777575   2.759280   2.825750   1.778111   1.787510
    22  C    4.516297   5.727789   5.709998   5.722789   5.153247
    23  H    4.733200   5.685306   5.969608   5.350770   4.873496
    24  H    5.290938   6.628280   6.581657   6.768056   6.240863
    25  H    4.894108   6.027288   5.792031   5.813309   4.922125
                   21         22         23         24         25
    21  H    0.000000
    22  C    6.236576   0.000000
    23  H    6.128200   1.092005   0.000000
    24  H    7.300691   1.087903   1.781310   0.000000
    25  H    6.085534   1.086165   1.756357   1.759965   0.000000
 Stoichiometry    C7H14N2O2
 Framework group  C1[X(C7H14N2O2)]
 Deg. of freedom    69
 Full point group                 C1      NOp   1
 Largest Abelian subgroup         C1      NOp   1
 Largest concise Abelian subgroup C1      NOp   1
                         Standard orientation:                         
 ---------------------------------------------------------------------
 Center     Atomic      Atomic             Coordinates (Angstroms)
 Number     Number       Type             X           Y           Z
 ---------------------------------------------------------------------
      1          6           0       -3.125918   -0.767535   -0.875303
      2          6           0       -1.867386   -0.646960   -0.015802
      3          8           0       -1.307639   -1.685692    0.333875
      4          7           0       -1.347558    0.568198    0.393309
      5          6           0       -0.083566    0.464630    1.121340
      6          6           0        1.151649    0.703417    0.228360
      7          8           0        1.380920    1.843229   -0.179633
      8          7           0        1.959419   -0.357931   -0.064516
      9          6           0        1.686606   -1.748881    0.291375
     10          6           0        3.191082   -0.113194   -0.805815
     11          1           0       -3.783821   -1.495685   -0.394149
     12          1           0       -2.838434   -1.193928   -1.841307
     13          1           0       -3.686352    0.139634   -1.056661
     14          1           0       -0.053710    1.232129    1.900713
     15          1           0       -0.086963   -0.512560    1.598497
     16          1           0        0.615385   -1.933587    0.378280
     17          1           0        2.063640   -2.390183   -0.511202
     18          1           0        2.195132   -2.040621    1.220236
     19          1           0        3.162581   -0.615406   -1.780556
     20          1           0        3.297054    0.959554   -0.956634
     21          1           0        4.052590   -0.496169   -0.245842
     22          6           0       -1.699523    1.910992   -0.129021
     23          1           0       -1.452803    2.025834   -1.186573
     24          1           0       -2.753691    2.130779    0.025757
     25          1           0       -1.117552    2.643225    0.423156
 ---------------------------------------------------------------------
 Rotational constants (GHZ):      1.6827789      0.7714138      0.6005705
 Standard basis: 6-31G(d,p) (6D, 7F)
 There are   235 symmetry adapted basis functions of A   symmetry.
 Integral buffers will be    131072 words long.
 Raffenetti 2 integral format.
 Two-electron integral symmetry is turned on.
   235 basis functions,   406 primitive gaussians,   235 cartesian basis functions
    43 alpha electrons       43 beta electrons
       nuclear repulsion energy       666.9868171134 Hartrees.
 NAtoms=   25 NActive=   25 NUniq=   25 SFac= 1.00D+00 NAtFMM=   60 NAOKFM=F Big=F
 One-electron integrals computed using PRISM.
 NBasis=   235 RedAO= T  NBF=   235
 NBsUse=   235 1.00D-06 NBFU=   235
 Initial guess read from the read-write file.
 B after Tr=     0.000000    0.000000    0.000000
         Rot=    1.000000    0.000000    0.000000    0.000000 Ang=   0.00 deg.
 Initial guess orbital symmetries:
       Occupied  (A) (A) (A) (A) (A) (A) (A) (A) (A) (A) (A) (A)
                 (A) (A) (A) (A) (A) (A) (A) (A) (A) (A) (A) (A)
                 (A) (A) (A) (A) (A) (A) (A) (A) (A) (A) (A) (A)
                 (A) (A) (A) (A) (A) (A) (A)
       Virtual   (A) (A) (A) (A) (A) (A) (A) (A) (A) (A) (A) (A)
                 (A) (A) (A) (A) (A) (A) (A) (A) (A) (A) (A) (A)
                 (A) (A) (A) (A) (A) (A) (A) (A) (A) (A) (A) (A)
                 (A) (A) (A) (A) (A) (A) (A) (A) (A) (A) (A) (A)
                 (A) (A) (A) (A) (A) (A) (A) (A) (A) (A) (A) (A)
                 (A) (A) (A) (A) (A) (A) (A) (A) (A) (A) (A) (A)
                 (A) (A) (A) (A) (A) (A) (A) (A) (A) (A) (A) (A)
                 (A) (A) (A) (A) (A) (A) (A) (A) (A) (A) (A) (A)
                 (A) (A) (A) (A) (A) (A) (A) (A) (A) (A) (A) (A)
                 (A) (A) (A) (A) (A) (A) (A) (A) (A) (A) (A) (A)
                 (A) (A) (A) (A) (A) (A) (A) (A) (A) (A) (A) (A)
                 (A) (A) (A) (A) (A) (A) (A) (A) (A) (A) (A) (A)
                 (A) (A) (A) (A) (A) (A) (A) (A) (A) (A) (A) (A)
                 (A) (A) (A) (A) (A) (A) (A) (A) (A) (A) (A) (A)
                 (A) (A) (A) (A) (A) (A) (A) (A) (A) (A) (A) (A)
                 (A) (A) (A) (A) (A) (A) (A) (A) (A) (A) (A) (A)
 Harris functional with IExCor=  402 diagonalized for initial guess.
 ExpMin= 1.61D-01 ExpMax= 5.48D+03 ExpMxC= 8.25D+02 IAcc=1 IRadAn=         1 AccDes= 0.00D+00
 HarFok:  IExCor=  402 AccDes= 0.00D+00 IRadAn=         1 IDoV= 1
 ScaDFX=  1.000000  1.000000  1.000000  1.000000
 FoFCou: FMM=F IPFlag=           0 FMFlag=      100000 FMFlg1=           0
         NFxFlg=           0 DoJE=T BraDBF=F KetDBF=T FulRan=T
         Omega=  0.000000  0.000000  1.000000  0.000000  0.000000 ICntrl=     500 IOpCl=  0
         NMat0=    1 NMatS0=    1 NMatT0=    0 NMatD0=    1 NMtDS0=    0 NMtDT0=    0
         I1Cent=           4 NGrid=           0.
 Petite list used in FoFCou.
 Requested convergence on RMS density matrix=1.00D-08 within 128 cycles.
 Requested convergence on MAX density matrix=1.00D-06.
 Requested convergence on             energy=1.00D-06.
 No special actions if energy rises.
 Keep R1 ints in memory in canonical form, NReq=391461023.
 Integral accuracy reduced to 1.0D-05 until final iterations.
 Initial convergence to 1.0D-05 achieved.  Increase integral accuracy.
 SCF Done:  E(RB3LYP) =  -535.157516794     A.U. after   13 cycles
             Convg  =    0.5238D-08             -V/T =  2.0094
 Calling FoFJK, ICntrl=      2127 FMM=F ISym2X=0 I1Cent= 0 IOpClX= 0 NMat=1 NMatS=1 NMatT=0.
 ***** Axes restored to original set *****
 -------------------------------------------------------------------
 Center     Atomic                   Forces (Hartrees/Bohr)
 Number     Number              X              Y              Z
 -------------------------------------------------------------------
      1        6          -0.005131655   -0.000393313    0.003243901
      2        6          -0.001002200   -0.006618058    0.000635113
      3        8           0.010558769    0.008701309   -0.002652149
      4        7           0.002489036   -0.004341417   -0.009471905
      5        6          -0.002788685    0.001960485    0.005335819
      6        6           0.001101517   -0.000067915   -0.000358276
      7        8           0.000860726   -0.001841844    0.000988580
      8        7           0.000252700    0.001071646   -0.000318998
      9        6          -0.002149704    0.002095760   -0.000038826
     10        6           0.000416752   -0.000610480    0.000361927
     11        1          -0.001143388    0.000062273    0.000777223
     12        1          -0.001161572   -0.000301942    0.000331375
     13        1           0.000141232   -0.008027228    0.000867505
     14        1          -0.000132551   -0.001947113   -0.001855332
     15        1          -0.002365417   -0.002440404    0.001622043
     16        1          -0.003206954   -0.000134122    0.000633698
     17        1          -0.000900550    0.000076997   -0.000191470
     18        1          -0.001054499   -0.000045192   -0.000035762
     19        1           0.000013567    0.000118627   -0.000026835
     20        1          -0.000114269    0.000008918   -0.000059999
     21        1           0.000077069    0.000155159    0.000008930
     22        6           0.002752259    0.011497008    0.001680523
     23        1          -0.000560428    0.000495975   -0.001355596
     24        1           0.004853795    0.000982429   -0.000397574
     25        1          -0.001805550   -0.000457557    0.000276083
 -------------------------------------------------------------------
 Cartesian Forces:  Max     0.011497008 RMS     0.003108730

 GradGradGradGradGradGradGradGradGradGradGradGradGradGradGradGradGradGrad
 Berny optimization.
 Using GEDIIS/GDIIS optimizer.
 Internal  Forces:  Max     0.038142050 RMS     0.007518315
 Search for a local minimum.
 Step number   2 out of a maximum of  120
 All quantities printed in internal units (Hartrees-Bohrs-Radians)
 Mixed Optimization -- RFO/linear search
 Update second derivatives using D2CorX and points    1    2
 DE= -9.78D-04 DEPred=-1.33D-02 R= 7.35D-02
 Trust test= 7.35D-02 RLast= 3.63D-01 DXMaxT set to 1.50D-01
 ITU= -1  0
 Use linear search instead of GDIIS.
     Eigenvalues ---    0.00289   0.00515   0.00773   0.00879   0.00923
     Eigenvalues ---    0.00995   0.01054   0.01168   0.01238   0.01319
     Eigenvalues ---    0.02131   0.02151   0.05002   0.06441   0.06456
     Eigenvalues ---    0.07047   0.07114   0.07476   0.07629   0.07639
     Eigenvalues ---    0.07646   0.07681   0.10015   0.13235   0.15746
     Eigenvalues ---    0.16000   0.16000   0.16000   0.16000   0.16000
     Eigenvalues ---    0.16000   0.16000   0.16000   0.16000   0.16000
     Eigenvalues ---    0.16064   0.21362   0.22917   0.24276   0.24543
     Eigenvalues ---    0.24998   0.24998   0.24999   0.24999   0.28727
     Eigenvalues ---    0.30351   0.33854   0.34027   0.34062   0.34238
     Eigenvalues ---    0.34316   0.34357   0.34379   0.34523   0.34710
     Eigenvalues ---    0.34991   0.35104   0.35389   0.35668   0.36784
     Eigenvalues ---    0.37196   0.37206   0.37230   0.37382   0.49696
     Eigenvalues ---    0.51568   0.57235   0.90504   0.91693
 RFO step:  Lambda=-6.85693433D-03 EMin= 2.88511739D-03
 Quartic linear search produced a step of -0.49397.
 Maximum step size (   0.150) exceeded in Quadratic search.
    -- Step size scaled by   0.918
 Iteration  1 RMS(Cart)=  0.24867615 RMS(Int)=  0.01190709
 Iteration  2 RMS(Cart)=  0.03246646 RMS(Int)=  0.00050708
 Iteration  3 RMS(Cart)=  0.00059998 RMS(Int)=  0.00046904
 Iteration  4 RMS(Cart)=  0.00000020 RMS(Int)=  0.00046904
 Variable       Old X    -DE/DX   Delta X   Delta X   Delta X     New X
                                 (Linear)    (Quad)   (Total)
    R1        2.88898  -0.00852  -0.00906   0.00079  -0.00828   2.88071
    R2        2.06538  -0.00043  -0.00041   0.00005  -0.00036   2.06502
    R3        2.06804  -0.00015  -0.00035   0.00033  -0.00002   2.06802
    R4        2.04399   0.00719   0.01058  -0.00637   0.00421   2.04821
    R5        2.32563   0.00355  -0.00206   0.00498   0.00292   2.32855
    R6        2.61453  -0.00537  -0.01507   0.01817   0.00310   2.61762
    R7        2.76342   0.01114  -0.00711   0.02435   0.01724   2.78065
    R8        2.80279  -0.01123  -0.01230   0.00413  -0.00817   2.79463
    R9        2.91544   0.00321  -0.00537   0.01314   0.00776   2.92321
   R10        2.06782  -0.00011  -0.00043   0.00050   0.00007   2.06789
   R11        2.05502  -0.00187  -0.00019  -0.00215  -0.00235   2.05268
   R12        2.32843   0.00115  -0.00071   0.00168   0.00097   2.32940
   R13        2.58052   0.00551   0.00015   0.00467   0.00483   2.58535
   R14        2.76173  -0.00024  -0.00001  -0.00030  -0.00030   2.76143
   R15        2.75564  -0.00045  -0.00009  -0.00042  -0.00051   2.75513
   R16        2.06074  -0.00316  -0.00010  -0.00402  -0.00412   2.05662
   R17        2.06798   0.00044   0.00001   0.00057   0.00058   2.06856
   R18        2.07569   0.00040   0.00004   0.00048   0.00052   2.07621
   R19        2.07281   0.00007   0.00002   0.00006   0.00008   2.07289
   R20        2.05691   0.00002  -0.00001   0.00003   0.00003   2.05694
   R21        2.07219   0.00002   0.00004  -0.00002   0.00001   2.07220
   R22        2.06359   0.00137  -0.02054   0.03273   0.01219   2.07578
   R23        2.05584   0.00420  -0.01671   0.03043   0.01372   2.06956
   R24        2.05255   0.00151  -0.01509   0.02466   0.00957   2.06213
    A1        1.87610  -0.00047   0.00941  -0.01372  -0.00424   1.87186
    A2        1.88677  -0.00043   0.00623  -0.00990  -0.00356   1.88321
    A3        2.04279  -0.00486  -0.02919   0.02674  -0.00240   2.04038
    A4        1.86205   0.00137   0.00589  -0.00108   0.00498   1.86703
    A5        1.89725   0.00269   0.00440   0.00023   0.00463   1.90188
    A6        1.89114   0.00218   0.00558  -0.00440   0.00125   1.89239
    A7        2.05737   0.00044   0.03379  -0.04956  -0.01602   2.04135
    A8        2.14697  -0.03084  -0.06438   0.03931  -0.02535   2.12162
    A9        2.07876   0.03038   0.03056   0.00977   0.04002   2.11879
   A10        1.99300   0.03814   0.06161  -0.01583   0.04624   2.03923
   A11        2.21663  -0.02920  -0.06694   0.04462  -0.02288   2.19375
   A12        2.03149  -0.00864  -0.00079  -0.01302  -0.01403   2.01746
   A13        1.97460  -0.00105  -0.02291   0.03245   0.00861   1.98321
   A14        1.90552  -0.00519  -0.00207  -0.03901  -0.04087   1.86464
   A15        1.85395   0.00682   0.01066   0.03114   0.04086   1.89482
   A16        1.85652  -0.00329  -0.00518  -0.02895  -0.03415   1.82237
   A17        1.97746   0.00234   0.01691   0.00430   0.02002   1.99748
   A18        1.89424  -0.00001   0.00227  -0.00348  -0.00054   1.89370
   A19        2.07580  -0.01170  -0.01131  -0.00470  -0.01633   2.05947
   A20        2.06854   0.01911   0.00568   0.02616   0.03151   2.10006
   A21        2.13874  -0.00744   0.00568  -0.02223  -0.01687   2.12187
   A22        2.18595   0.01335   0.00090   0.02311   0.02385   2.20981
   A23        2.06942  -0.00691  -0.00071  -0.01142  -0.01226   2.05716
   A24        2.02773  -0.00642  -0.00017  -0.01133  -0.01164   2.01609
   A25        1.94334   0.00084   0.00058   0.00247   0.00305   1.94639
   A26        1.89109  -0.00051   0.00002  -0.00156  -0.00155   1.88954
   A27        1.95228  -0.00107   0.00005  -0.00396  -0.00391   1.94837
   A28        1.87301   0.00067  -0.00010   0.00387   0.00376   1.87677
   A29        1.92027   0.00019  -0.00044   0.00132   0.00088   1.92115
   A30        1.88077  -0.00008  -0.00014  -0.00201  -0.00216   1.87862
   A31        1.93153  -0.00009   0.00002  -0.00036  -0.00035   1.93118
   A32        1.89450   0.00028  -0.00031   0.00140   0.00110   1.89560
   A33        1.92343  -0.00020   0.00022  -0.00099  -0.00077   1.92266
   A34        1.90778  -0.00001  -0.00003   0.00022   0.00019   1.90797
   A35        1.89052  -0.00001   0.00007  -0.00050  -0.00043   1.89009
   A36        1.91609   0.00003   0.00002   0.00024   0.00026   1.91635
   A37        1.96347  -0.00094  -0.02610   0.03309   0.00744   1.97091
   A38        1.94201  -0.00234  -0.01550   0.01535   0.00037   1.94238
   A39        1.87985   0.00043   0.01521  -0.01897  -0.00393   1.87592
   A40        1.91289   0.00079  -0.00112  -0.00113  -0.00127   1.91162
   A41        1.87589   0.00017   0.01716  -0.02393  -0.00699   1.86890
   A42        1.88669   0.00212   0.01183  -0.00775   0.00398   1.89067
    D1        0.85353  -0.00037   0.01576  -0.02768  -0.01170   0.84183
    D2       -2.27429   0.00122   0.01795   0.01346   0.03105  -2.24324
    D3       -1.15048  -0.00151   0.00062  -0.01454  -0.01359  -1.16407
    D4        2.00489   0.00008   0.00281   0.02660   0.02916   2.03404
    D5        2.99285  -0.00059   0.00875  -0.01973  -0.01066   2.98219
    D6       -0.13498   0.00100   0.01094   0.02141   0.03209  -0.10289
    D7       -3.06417   0.00044   0.01778  -0.02335  -0.00654  -3.07071
    D8       -0.24386   0.00164  -0.00200   0.03132   0.02947  -0.21439
    D9        0.09135   0.00228   0.01998   0.01871   0.03855   0.12990
   D10        2.91166   0.00348   0.00020   0.07339   0.07456   2.98622
   D11        1.69582   0.00490   0.01470   0.10468   0.12055   1.81637
   D12       -2.52374  -0.00337  -0.00652   0.06243   0.05706  -2.46668
[...]
      9          6           0        1.662626   -1.807447    0.113603
     10          6           0        3.250477   -0.150078   -0.786794
     11          1           0       -3.753202   -1.440858   -0.797494
     12          1           0       -3.030712   -0.200136   -1.843338
     13          1           0       -3.911804    0.287709   -0.390867
     14          1           0       -0.101099    1.234262    1.831121
     15          1           0       -0.092679   -0.528959    1.613836
     16          1           0        0.609888   -1.946950    0.357510
     17          1           0        1.861019   -2.357404   -0.813337
     18          1           0        2.287931   -2.247217    0.902614
     19          1           0        3.214556   -0.549255   -1.807992
     20          1           0        3.420187    0.924240   -0.823309
     21          1           0        4.076782   -0.638726   -0.256342
     22          6           0       -1.620437    1.844636   -0.222204
     23          1           0       -2.126691    1.800165   -1.186953
     24          1           0       -2.282975    2.340432    0.501118
     25          1           0       -0.715265    2.442765   -0.337584
 ---------------------------------------------------------------------
 Rotational constants (GHZ):      1.7438201      0.7301894      0.5768632

 **********************************************************************

            Population analysis using the SCF density.

 **********************************************************************

 Orbital symmetries:
       Occupied  (A) (A) (A) (A) (A) (A) (A) (A) (A) (A) (A) (A)
                 (A) (A) (A) (A) (A) (A) (A) (A) (A) (A) (A) (A)
                 (A) (A) (A) (A) (A) (A) (A) (A) (A) (A) (A) (A)
                 (A) (A) (A) (A) (A) (A) (A)
       Virtual   (A) (A) (A) (A) (A) (A) (A) (A) (A) (A) (A) (A)
                 (A) (A) (A) (A) (A) (A) (A) (A) (A) (A) (A) (A)
                 (A) (A) (A) (A) (A) (A) (A) (A) (A) (A) (A) (A)
                 (A) (A) (A) (A) (A) (A) (A) (A) (A) (A) (A) (A)
                 (A) (A) (A) (A) (A) (A) (A) (A) (A) (A) (A) (A)
                 (A) (A) (A) (A) (A) (A) (A) (A) (A) (A) (A) (A)
                 (A) (A) (A) (A) (A) (A) (A) (A) (A) (A) (A) (A)
                 (A) (A) (A) (A) (A) (A) (A) (A) (A) (A) (A) (A)
                 (A) (A) (A) (A) (A) (A) (A) (A) (A) (A) (A) (A)
                 (A) (A) (A) (A) (A) (A) (A) (A) (A) (A) (A) (A)
                 (A) (A) (A) (A) (A) (A) (A) (A) (A) (A) (A) (A)
                 (A) (A) (A) (A) (A) (A) (A) (A) (A) (A) (A) (A)
                 (A) (A) (A) (A) (A) (A) (A) (A) (A) (A) (A) (A)
                 (A) (A) (A) (A) (A) (A) (A) (A) (A) (A) (A) (A)
                 (A) (A) (A) (A) (A) (A) (A) (A) (A) (A) (A) (A)
                 (A) (A) (A) (A) (A) (A) (A) (A) (A) (A) (A) (A)
 The electronic state is 1-A.
 Alpha  occ. eigenvalues --  -19.11190 -19.10698 -14.36990 -14.36649 -10.28829
 Alpha  occ. eigenvalues --  -10.28257 -10.22432 -10.22010 -10.21311 -10.21085
 Alpha  occ. eigenvalues --  -10.19319  -1.03333  -1.02510  -0.93291  -0.92856
 Alpha  occ. eigenvalues --   -0.76343  -0.73018  -0.71607  -0.69939  -0.67421
 Alpha  occ. eigenvalues --   -0.55871  -0.53384  -0.51341  -0.49329  -0.47812
 Alpha  occ. eigenvalues --   -0.46520  -0.46408  -0.45427  -0.42413  -0.41001
 Alpha  occ. eigenvalues --   -0.40557  -0.40097  -0.39972  -0.39508  -0.39353
 Alpha  occ. eigenvalues --   -0.38238  -0.37064  -0.35978  -0.35344  -0.26155
 Alpha  occ. eigenvalues --   -0.25089  -0.23766  -0.22960
 Alpha virt. eigenvalues --    0.01542   0.03023   0.08685   0.09807   0.13014
 Alpha virt. eigenvalues --    0.13232   0.13629   0.14991   0.15200   0.15456
 Alpha virt. eigenvalues --    0.15929   0.16651   0.17395   0.17745   0.18330
 Alpha virt. eigenvalues --    0.18890   0.20889   0.21164   0.21962   0.23334
 Alpha virt. eigenvalues --    0.25717   0.26849   0.32378   0.34806   0.37364
 Alpha virt. eigenvalues --    0.41655   0.45945   0.49066   0.50193   0.51126
 Alpha virt. eigenvalues --    0.51908   0.52729   0.54460   0.55778   0.56653
 Alpha virt. eigenvalues --    0.60254   0.61459   0.62637   0.64340   0.66535
 Alpha virt. eigenvalues --    0.68520   0.68768   0.70505   0.71572   0.73495
 Alpha virt. eigenvalues --    0.74396   0.76156   0.78551   0.79705   0.80265
 Alpha virt. eigenvalues --    0.81798   0.82374   0.84569   0.85625   0.86045
 Alpha virt. eigenvalues --    0.86238   0.87228   0.87554   0.88679   0.89917
 Alpha virt. eigenvalues --    0.91597   0.92130   0.94625   0.95414   0.96165
 Alpha virt. eigenvalues --    0.98038   1.00117   1.03204   1.03442   1.05833
 Alpha virt. eigenvalues --    1.10226   1.11001   1.14305   1.20813   1.23529
 Alpha virt. eigenvalues --    1.27666   1.29110   1.30769   1.32031   1.34999
 Alpha virt. eigenvalues --    1.37780   1.39244   1.41373   1.42336   1.47124
 Alpha virt. eigenvalues --    1.49461   1.53920   1.59203   1.61103   1.62333
 Alpha virt. eigenvalues --    1.67662   1.69511   1.71589   1.74204   1.75454
 Alpha virt. eigenvalues --    1.77930   1.78699   1.81458   1.83418   1.83848
 Alpha virt. eigenvalues --    1.84639   1.86749   1.88436   1.89656   1.90995
 Alpha virt. eigenvalues --    1.94078   1.95994   1.96667   1.98499   2.01018
 Alpha virt. eigenvalues --    2.02123   2.03267   2.03552   2.04137   2.04409
 Alpha virt. eigenvalues --    2.05302   2.05717   2.08247   2.09022   2.09878
 Alpha virt. eigenvalues --    2.11041   2.12584   2.12729   2.13564   2.17886
 Alpha virt. eigenvalues --    2.20454   2.23692   2.26061   2.28118   2.29168
 Alpha virt. eigenvalues --    2.32094   2.32657   2.36182   2.39803   2.40107
 Alpha virt. eigenvalues --    2.43083   2.45842   2.48144   2.48855   2.54483
 Alpha virt. eigenvalues --    2.56344   2.57750   2.57783   2.59665   2.63501
 Alpha virt. eigenvalues --    2.65328   2.66426   2.67668   2.67973   2.71649
 Alpha virt. eigenvalues --    2.72344   2.73182   2.77640   2.81638   2.83520
 Alpha virt. eigenvalues --    2.85279   2.87410   2.88394   2.89515   2.89907
 Alpha virt. eigenvalues --    2.90896   2.97942   2.99461   3.08145   3.11297
 Alpha virt. eigenvalues --    3.12596   3.16020   3.18381   3.18545   3.25252
 Alpha virt. eigenvalues --    3.28240   3.35753   3.39915   3.41218   3.42745
 Alpha virt. eigenvalues --    3.43891   3.44212   3.45496   3.46132   3.49504
 Alpha virt. eigenvalues --    3.50647   3.99617   4.04218   4.06905   4.19297
 Alpha virt. eigenvalues --    4.27432   4.38274   4.49854   4.50868   4.56127
 Alpha virt. eigenvalues --    4.62626   4.72241
          Condensed to atoms (all electrons):
              1          2          3          4          5          6
     1  C    5.143000   0.349517  -0.077775  -0.119685   0.006066  -0.000145
     2  C    0.349517   4.377240   0.561533   0.273389  -0.024644  -0.000819
     3  O   -0.077775   0.561533   8.093412  -0.098801  -0.005054  -0.000294
     4  N   -0.119685   0.273389  -0.098801   7.037516   0.284780  -0.047006
     5  C    0.006066  -0.024644  -0.005054   0.284780   5.021504   0.333969
     6  C   -0.000145  -0.000819  -0.000294  -0.047006   0.333969   4.414827
     7  O   -0.000001  -0.000056  -0.000003  -0.001065  -0.082192   0.537998
     8  N    0.000007   0.000862   0.000145   0.000170  -0.096027   0.305045
     9  C   -0.000138  -0.000123  -0.013758   0.001597   0.000730  -0.025452
    10  C    0.000000  -0.000028   0.000000  -0.000157   0.005798  -0.031229
    11  H    0.368332  -0.022825   0.005306   0.004724  -0.000139   0.000002
    12  H    0.365540  -0.022109   0.000906   0.002272  -0.000117   0.000020
    13  H    0.361825  -0.021094   0.001845   0.000817  -0.000193  -0.000005
    14  H   -0.000112   0.003166   0.000726  -0.042579   0.369085  -0.038541
    15  H    0.000952  -0.005778   0.016304  -0.037975   0.353878  -0.024670
    16  H    0.000515   0.000170   0.033317  -0.004139   0.001427  -0.004128
    17  H    0.000002   0.000018   0.000041   0.000045  -0.000203   0.002012
    18  H    0.000000   0.000004   0.000169  -0.000031  -0.000097  -0.001201
    19  H    0.000000   0.000000   0.000000   0.000025  -0.000186   0.001579
    20  H    0.000000   0.000000   0.000000  -0.000023   0.001052  -0.003667
    21  H    0.000000   0.000000   0.000000  -0.000003  -0.000137   0.001122
    22  C   -0.001022  -0.026372   0.002777   0.280587  -0.041089  -0.003153
    23  H    0.004909  -0.007859   0.000047  -0.032513   0.003865   0.000239
    24  H    0.000162  -0.002069   0.000002  -0.046764  -0.000319  -0.000348
    25  H   -0.000141   0.002200  -0.000079  -0.030942  -0.008159   0.001758
              7          8          9         10         11         12
     1  C   -0.000001   0.000007  -0.000138   0.000000   0.368332   0.365540
     2  C   -0.000056   0.000862  -0.000123  -0.000028  -0.022825  -0.022109
     3  O   -0.000003   0.000145  -0.013758   0.000000   0.005306   0.000906
     4  N   -0.001065   0.000170   0.001597  -0.000157   0.004724   0.002272
     5  C   -0.082192  -0.096027   0.000730   0.005798  -0.000139  -0.000117
     6  C    0.537998   0.305045  -0.025452  -0.031229   0.000002   0.000020
     7  O    8.130986  -0.091092   0.002656  -0.012643   0.000000   0.000000
     8  N   -0.091092   6.969747   0.285099   0.290955   0.000000   0.000000
     9  C    0.002656   0.285099   4.873910  -0.049639   0.000001   0.000011
    10  C   -0.012643   0.290955  -0.049639   4.826615   0.000000   0.000000
    11  H    0.000000   0.000000   0.000001   0.000000   0.544414  -0.021517
    12  H    0.000000   0.000000   0.000011   0.000000  -0.021517   0.571195
    13  H    0.000000   0.000000   0.000001   0.000000  -0.022986  -0.029782
    14  H    0.002222   0.003819   0.000196  -0.000176   0.000004  -0.000007
    15  H    0.003263   0.001521  -0.001619  -0.000213  -0.000024  -0.000011
    16  H    0.000008  -0.026126   0.366988   0.003788  -0.000004  -0.000037
    17  H   -0.000048  -0.041741   0.384792  -0.004096   0.000000   0.000000
    18  H   -0.000029  -0.046112   0.377618  -0.000756   0.000000   0.000000
    19  H    0.000675  -0.043012  -0.003212   0.385635   0.000000   0.000000
    20  H    0.024345  -0.035694   0.004343   0.382998   0.000000   0.000000
    21  H    0.000738  -0.045978  -0.000180   0.385910   0.000000   0.000000
    22  C   -0.008523  -0.000157  -0.000007  -0.000001   0.000237  -0.003029
    23  H    0.000088   0.000015  -0.000001   0.000000   0.000056   0.002338
    24  H    0.000229  -0.000001   0.000001   0.000000   0.000008  -0.000077
    25  H    0.022110   0.000282  -0.000030   0.000020  -0.000008   0.000063
             13         14         15         16         17         18
     1  C    0.361825  -0.000112   0.000952   0.000515   0.000002   0.000000
     2  C   -0.021094   0.003166  -0.005778   0.000170   0.000018   0.000004
     3  O    0.001845   0.000726   0.016304   0.033317   0.000041   0.000169
     4  N    0.000817  -0.042579  -0.037975  -0.004139   0.000045  -0.000031
     5  C   -0.000193   0.369085   0.353878   0.001427  -0.000203  -0.000097
     6  C   -0.000005  -0.038541  -0.024670  -0.004128   0.002012  -0.001201
     7  O    0.000000   0.002222   0.003263   0.000008  -0.000048  -0.000029
     8  N    0.000000   0.003819   0.001521  -0.026126  -0.041741  -0.046112
     9  C    0.000001   0.000196  -0.001619   0.366988   0.384792   0.377618
    10  C    0.000000  -0.000176  -0.000213   0.003788  -0.004096  -0.000756
    11  H   -0.022986   0.000004  -0.000024  -0.000004   0.000000   0.000000
    12  H   -0.029782  -0.000007  -0.000011  -0.000037   0.000000   0.000000
    13  H    0.581769   0.000007  -0.000045  -0.000005   0.000000   0.000000
    14  H    0.000007   0.595555  -0.022554   0.000026  -0.000016   0.000055
    15  H   -0.000045  -0.022554   0.570519  -0.001793   0.000151   0.000488
    16  H   -0.000005   0.000026  -0.001793   0.506460  -0.022974  -0.025882
    17  H    0.000000  -0.000016   0.000151  -0.022974   0.609349  -0.046143
    18  H    0.000000   0.000055   0.000488  -0.025882  -0.046143   0.625854
    19  H    0.000000  -0.000001   0.000000   0.000031   0.007121  -0.001258
    20  H    0.000000  -0.000028  -0.000049  -0.000183   0.000011  -0.000079
    21  H    0.000000   0.000014  -0.000014  -0.000002  -0.002601   0.005462
    22  C    0.000552  -0.002857   0.004752  -0.000018   0.000002   0.000000
    23  H   -0.001834  -0.000034  -0.000231   0.000003   0.000000   0.000000
    24  H    0.001238   0.004166   0.000128  -0.000004   0.000000   0.000000
    25  H    0.000132  -0.001734   0.000179  -0.000002   0.000002  -0.000001
             19         20         21         22         23         24
     1  C    0.000000   0.000000   0.000000  -0.001022   0.004909   0.000162
     2  C    0.000000   0.000000   0.000000  -0.026372  -0.007859  -0.002069
     3  O    0.000000   0.000000   0.000000   0.002777   0.000047   0.000002
     4  N    0.000025  -0.000023  -0.000003   0.280587  -0.032513  -0.046764
     5  C   -0.000186   0.001052  -0.000137  -0.041089   0.003865  -0.000319
     6  C    0.001579  -0.003667   0.001122  -0.003153   0.000239  -0.000348
     7  O    0.000675   0.024345   0.000738  -0.008523   0.000088   0.000229
     8  N   -0.043012  -0.035694  -0.045978  -0.000157   0.000015  -0.000001
     9  C   -0.003212   0.004343  -0.000180  -0.000007  -0.000001   0.000001
    10  C    0.385635   0.382998   0.385910  -0.000001   0.000000   0.000000
    11  H    0.000000   0.000000   0.000000   0.000237   0.000056   0.000008
    12  H    0.000000   0.000000   0.000000  -0.003029   0.002338  -0.000077
    13  H    0.000000   0.000000   0.000000   0.000552  -0.001834   0.001238
    14  H   -0.000001  -0.000028   0.000014  -0.002857  -0.000034   0.004166
    15  H    0.000000  -0.000049  -0.000014   0.004752  -0.000231   0.000128
    16  H    0.000031  -0.000183  -0.000002  -0.000018   0.000003  -0.000004
    17  H    0.007121   0.000011  -0.002601   0.000002   0.000000   0.000000
    18  H   -0.001258  -0.000079   0.005462   0.000000   0.000000   0.000000
    19  H    0.609038  -0.026062  -0.043883   0.000000   0.000000   0.000000
    20  H   -0.026062   0.518003  -0.023728   0.000005   0.000000   0.000000
    21  H   -0.043883  -0.023728   0.611231   0.000000   0.000000   0.000000
    22  C    0.000000   0.000005   0.000000   4.848244   0.383169   0.378317
    23  H    0.000000   0.000000   0.000000   0.383169   0.588039  -0.038794
    24  H    0.000000   0.000000   0.000000   0.378317  -0.038794   0.621862
    25  H    0.000001  -0.000012  -0.000001   0.378271  -0.021054  -0.032506
             25
     1  C   -0.000141
     2  C    0.002200
     3  O   -0.000079
     4  N   -0.030942
     5  C   -0.008159
     6  C    0.001758
     7  O    0.022110
     8  N    0.000282
     9  C   -0.000030
    10  C    0.000020
    11  H   -0.000008
    12  H    0.000063
    13  H    0.000132
    14  H   -0.001734
    15  H    0.000179
    16  H   -0.000002
    17  H    0.000002
    18  H   -0.000001
    19  H    0.000001
    20  H   -0.000012
    21  H   -0.000001
    22  C    0.378271
    23  H   -0.021054
    24  H   -0.032506
    25  H    0.524746
 Mulliken atomic charges:
              1
     1  C   -0.401810
     2  C    0.565676
     3  O   -0.520768
     4  N   -0.424239
     5  C   -0.123598
     6  C    0.582086
     7  O   -0.529664
     8  N   -0.431729
     9  C   -0.203787
    10  C   -0.182781
    11  H    0.144421
    12  H    0.134343
    13  H    0.127761
    14  H    0.129600
    15  H    0.142843
    16  H    0.172563
    17  H    0.114275
    18  H    0.111938
    19  H    0.113509
    20  H    0.158766
    21  H    0.112050
    22  C   -0.190684
    23  H    0.119552
    24  H    0.114768
    25  H    0.164905
 Sum of Mulliken atomic charges =   0.00000
 Mulliken charges with hydrogens summed into heavy atoms:
              1
     1  C    0.004714
     2  C    0.565676
     3  O   -0.520768
     4  N   -0.424239
     5  C    0.148845
     6  C    0.582086
     7  O   -0.529664
     8  N   -0.431729
     9  C    0.194990
    10  C    0.201545
    22  C    0.208542
 Sum of Mulliken charges with hydrogens summed into heavy atoms =   0.00000
 Electronic spatial extent (au):  <R**2>=           2069.2673
 Charge=              0.0000 electrons
 Dipole moment (field-independent basis, Debye):
    X=             -0.6220    Y=             -0.0616    Z=             -0.7863  Tot=              1.0045
 Quadrupole moment (field-independent basis, Debye-Ang):
   XX=            -59.3426   YY=            -73.9927   ZZ=            -64.1143
   XY=            -11.4659   XZ=              1.7656   YZ=              1.7224
 Traceless Quadrupole moment (field-independent basis, Debye-Ang):
   XX=              6.4739   YY=             -8.1761   ZZ=              1.7022
   XY=            -11.4659   XZ=              1.7656   YZ=              1.7224
 Octapole moment (field-independent basis, Debye-Ang**2):
  XXX=             -1.2844  YYY=             -0.3862  ZZZ=              1.1636  XYY=             -1.8932
  XXY=             -3.5591  XXZ=            -10.4823  XZZ=              0.8306  YZZ=              1.3175
  YYZ=             -2.8702  XYZ=             -3.2559
 Hexadecapole moment (field-independent basis, Debye-Ang**3):
 XXXX=          -1672.8927 YYYY=           -707.4378 ZZZZ=           -218.0952 XXXY=             -3.8415
 XXXZ=             -3.8058 YYYX=            -34.6796 YYYZ=              2.3626 ZZZX=             -0.6265
 ZZZY=              0.4659 XXYY=           -423.1626 XXZZ=           -327.6411 YYZZ=           -147.3450
 XXYZ=              4.3564 YYXZ=              4.3992 ZZXY=              0.9802
 N-N= 6.630382729941D+02 E-N=-2.572726641985D+03  KE= 5.301486839256D+02
 1\1\GINC-C08\FOpt\RB3LYP\6-31G(d,p)\C7H14N2O2\TUU61186\22-Apr-2026\0\\
 # opt b3lyp/6-31g(d,p)\\QM dihedral opt\\0,1\C,3.3631746973,0.00232591
 46,-0.8804651793\C,2.1184670048,0.2496670086,-0.041912453\O,1.86184016
 17,1.3764677085,0.3856573874\N,1.3049359989,-0.8264597018,0.2047106616
 \C,0.1583970388,-0.6529759853,1.1003754242\C,-1.1746563333,-0.80087434
 15,0.3475553536\O,-1.5885916104,-1.9386586161,0.1103313803\N,-1.848264
 1057,0.3216388112,-0.0437898321\C,-1.4096315672,1.6998857789,0.1507261
 275\C,-3.1384110758,0.1637069949,-0.7038697824\H,3.9398594069,0.926387
 0793,-0.8886617894\H,3.1013879931,-0.2594972548,-1.911314435\H,3.97856
 37971,-0.8081278056,-0.478291517\H,0.1628667734,-1.4608258107,1.838842
 6517\H,0.2810736764,0.2974976072,1.6139930181\H,-0.3437921976,1.760806
 9355,0.3686334066\H,-1.5888039816,2.2607143169,-0.7736106969\H,-1.9809
 307745,2.1873180733,0.9525789924\H,-3.097564216,0.5563870435,-1.727399
 6906\H,-3.3888379716,-0.8949785147,-0.7315227478\H,-3.9127163577,0.714
 2512158,-0.1558833664\C,1.5819418686,-2.1886546912,-0.2476811148\H,2.0
 665067883,-2.1847551689,-1.2245093593\H,2.2229239708,-2.7307656705,0.4
 617001501\H,0.6320314753,-2.7176251872,-0.3386101296\\Version=EM64L-G0
 9RevC.01\State=1-A\HF=-535.1660539\RMSD=3.041e-09\RMSF=5.985e-06\Dipol
 e=0.2382574,0.0050181,-0.3152497\Quadrupole=3.4106392,-4.7507608,1.340
 1215,-9.2715248,-1.4325717,-0.9377737\PG=C01 [X(C7H14N2O2)]\\@


            THE IRISH PIG
 'TWAS AN EVENING IN NOVEMBER,
 AS I VERY WELL REMEMBER
 I WAS STROLLING DOWN THE STREET IN DRUNKEN PRIDE,
 BUT MY KNEES WERE ALL A'FLUTTER
 SO I LANDED IN THE GUTTER,
 AND A PIG CAME UP AND LAY DOWN BY MY SIDE.

 YES, I LAY THERE IN THE GUTTER
 THINKING THOUGHTS I COULD NOT UTTER
 WHEN A COLLEEN PASSING BY DID SOFTLY SAY,
 'YE CAN TELL A MAN THAT BOOZES
 BY THE COMPANY THAT HE CHOOSES.' -
 AT THAT, THE PIG GOT UP AND WALKED AWAY!
     -- THE ECONOMIST, AUGUST 23, 1986
 Job cpu time:  0 days  0 hours 36 minutes 29.4 seconds.
 File lengths (MBytes):  RWF=     38 Int=      0 D2E=      0 Chk=      5 Scr=      1
 Normal termination of Gaussian 09 at Wed Apr 22 18:06:41 2026.
